/*--------------------------------*- C++ -*----------------------------------*\
  =========                 |
  \\      /  F ield         | OpenFOAM: The Open Source CFD Toolbox
   \\    /   O peration     | Website:  https://openfoam.org
    \\  /    A nd           | Version:  7
     \\/     M anipulation  |
\*---------------------------------------------------------------------------*/
FoamFile
{
    version     2.0;
    format      ascii;
    class       surfaceScalarField;
    location    "0.075";
    object      alphaRhoPhi;
}
// * * * * * * * * * * * * * * * * * * * * * * * * * * * * * * * * * * * * * //

dimensions      [1 0 -1 0 0 0 0];

internalField   nonuniform List<scalar> 
54
(
2.655086299e-08
3.666246804e-08
2.314793898e-05
-2.655034181e-08
3.612865087e-08
2.322812694e-05
3.666301491e-08
2.31479384e-05
2.613494421e-08
-1.673908088e-08
2.323840753e-05
-2.613368925e-08
-1.632168335e-08
2.331585359e-05
-1.67393609e-08
2.323840758e-05
2.672103756e-08
2.31676647e-05
-2.672014555e-08
2.324824501e-05
2.316766398e-05
3.112573668e-08
2.060471129e-08
2.3096185e-05
-3.112394362e-08
2.040743087e-08
2.326994363e-05
2.060515257e-08
2.309618572e-05
3.1056653e-08
-4.211171617e-08
2.327004219e-05
-3.105464661e-08
-4.198268848e-08
2.344033216e-05
-4.211198307e-08
2.327004096e-05
3.136530098e-08
2.309416488e-05
-3.136321855e-08
2.326896201e-05
2.309416421e-05
4.229225213e-08
9.307349907e-09
-4.229087356e-08
9.653350279e-09
9.306794073e-09
4.258831051e-08
-7.340220014e-08
-4.25863137e-08
-7.333347473e-08
-7.340267141e-08
4.26498427e-08
-4.264928742e-08
)
;

boundaryField
{
    inlet
    {
        type            calculated;
        value           nonuniform List<scalar> 9(-2.321116603e-05 -2.321115064e-05 -2.321113857e-05 -2.321116448e-05 -2.321114911e-05 -2.3211137e-05 -2.321116603e-05 -2.321115064e-05 -2.321113857e-05);
    }
    outlet
    {
        type            calculated;
        value           nonuniform 0();
    }
    walls
    {
        type            calculated;
        value           uniform 0;
    }
    procBoundary0to1
    {
        type            processor;
        value           nonuniform List<scalar> 9(2.304456303e-05 2.334485156e-05 2.3044561e-05 2.331014248e-05 2.360846211e-05 2.3310143e-05 2.297808643e-05 2.328090672e-05 2.29780876e-05);
    }
}


// ************************************************************************* //
