/*--------------------------------*- C++ -*----------------------------------*\
  =========                 |
  \\      /  F ield         | OpenFOAM: The Open Source CFD Toolbox
   \\    /   O peration     | Website:  https://openfoam.org
    \\  /    A nd           | Version:  7
     \\/     M anipulation  |
\*---------------------------------------------------------------------------*/
FoamFile
{
    version     2.0;
    format      ascii;
    class       volScalarField;
    location    "0.075";
    object      cpavg;
}
// * * * * * * * * * * * * * * * * * * * * * * * * * * * * * * * * * * * * * //

dimensions      [0 2 -2 -1 0 0 0];

internalField   nonuniform List<scalar> 
27
(
1011.623347
1011.623347
1011.623347
1011.623348
1011.623348
1011.623348
1011.623349
1011.623349
1011.623349
1011.638526
1011.638526
1011.638526
1011.638528
1011.638528
1011.638528
1011.63853
1011.63853
1011.63853
1011.664255
1011.664254
1011.664255
1011.664258
1011.664258
1011.664258
1011.664262
1011.664262
1011.664262
)
;

boundaryField
{
    inlet
    {
        type            calculated;
        value           uniform 1011.338357;
    }
    outlet
    {
        type            calculated;
        value           nonuniform 0();
    }
    walls
    {
        type            calculated;
        value           nonuniform List<scalar> 
36
(
1011.454076
1011.564235
1011.660294
1011.454296
1011.564311
1011.659819
1011.454076
1011.564235
1011.660294
1011.454075
1011.564141
1011.660208
1011.454296
1011.564216
1011.659728
1011.454075
1011.564141
1011.660208
1011.454076
1011.454296
1011.454075
1011.564235
1011.564262
1011.564141
1011.660294
1011.65977
1011.660208
1011.454076
1011.454296
1011.454075
1011.564235
1011.564262
1011.564141
1011.660294
1011.65977
1011.660208
)
;
    }
    procBoundary0to1
    {
        type            processor;
        value           nonuniform List<scalar> 9(1011.693229 1011.693228 1011.693229 1011.693235 1011.693234 1011.693235 1011.693243 1011.693242 1011.693243);
    }
}


// ************************************************************************* //
