/*--------------------------------*- C++ -*----------------------------------*\
  =========                 |
  \\      /  F ield         | OpenFOAM: The Open Source CFD Toolbox
   \\    /   O peration     | Website:  https://openfoam.org
    \\  /    A nd           | Version:  7
     \\/     M anipulation  |
\*---------------------------------------------------------------------------*/
FoamFile
{
    version     2.0;
    format      ascii;
    class       volScalarField;
    location    "0.075";
    object      muavg;
}
// * * * * * * * * * * * * * * * * * * * * * * * * * * * * * * * * * * * * * //

dimensions      [1 -1 -1 0 0 0 0];

internalField   nonuniform List<scalar> 
27
(
1.861182413e-05
1.861182409e-05
1.861182413e-05
1.861182502e-05
1.861182498e-05
1.861182502e-05
1.861182598e-05
1.861182594e-05
1.861182598e-05
1.862521261e-05
1.862521247e-05
1.862521261e-05
1.862521414e-05
1.8625214e-05
1.862521414e-05
1.862521595e-05
1.862521581e-05
1.862521595e-05
1.864787426e-05
1.864787389e-05
1.864787426e-05
1.864787719e-05
1.864787683e-05
1.864787719e-05
1.864788084e-05
1.864788047e-05
1.864788084e-05
)
;

boundaryField
{
    inlet
    {
        type            calculated;
        value           uniform 1.835366622e-05;
    }
    outlet
    {
        type            calculated;
        value           nonuniform 0();
    }
    walls
    {
        type            calculated;
        value           nonuniform List<scalar> 
36
(
1.846091362e-05
1.856068728e-05
1.864594356e-05
1.846111551e-05
1.856075521e-05
1.864552607e-05
1.846091362e-05
1.856068727e-05
1.864594355e-05
1.846091341e-05
1.856060288e-05
1.864586816e-05
1.846111529e-05
1.856066955e-05
1.864544561e-05
1.846091341e-05
1.856060288e-05
1.864586815e-05
1.846091362e-05
1.846111538e-05
1.846091341e-05
1.856068727e-05
1.856071134e-05
1.856060288e-05
1.864594355e-05
1.864548253e-05
1.864586815e-05
1.846091362e-05
1.846111538e-05
1.846091341e-05
1.856068728e-05
1.856071134e-05
1.856060288e-05
1.864594356e-05
1.864548253e-05
1.864586816e-05
)
;
    }
    procBoundary0to1
    {
        type            processor;
        value           nonuniform List<scalar> 9(1.867334961e-05 1.867334895e-05 1.867334961e-05 1.867335471e-05 1.867335405e-05 1.867335471e-05 1.867336111e-05 1.867336044e-05 1.867336111e-05);
    }
}


// ************************************************************************* //
