/*--------------------------------*- C++ -*----------------------------------*\
  =========                 |
  \\      /  F ield         | OpenFOAM: The Open Source CFD Toolbox
   \\    /   O peration     | Website:  https://openfoam.org
    \\  /    A nd           | Version:  7
     \\/     M anipulation  |
\*---------------------------------------------------------------------------*/
FoamFile
{
    version     2.0;
    format      ascii;
    class       volScalarField;
    location    "0.075";
    object      p;
}
// * * * * * * * * * * * * * * * * * * * * * * * * * * * * * * * * * * * * * //

dimensions      [1 -1 -2 0 0 0 0];

internalField   nonuniform List<scalar> 
27
(
101329.1388
101329.132
101329.1388
101329.0716
101329.0649
101329.0716
101329.0189
101329.0121
101329.0189
101327.6077
101327.6032
101327.6077
101327.5409
101327.5363
101327.5409
101327.4842
101327.4795
101327.4842
101326.4411
101326.4368
101326.4411
101326.3753
101326.3708
101326.3753
101326.3195
101326.3149
101326.3195
)
;

boundaryField
{
    inlet
    {
        type            zeroGradient;
    }
    outlet
    {
        type            totalPressure;
        rho             rho;
        psi             none;
        gamma           1;
        p0              nonuniform 0();
        value           nonuniform 0();
    }
    walls
    {
        type            zeroGradient;
    }
    procBoundary0to1
    {
        type            processor;
        value           nonuniform List<scalar> 9(101325.856 101325.8527 101325.856 101325.7958 101325.7923 101325.7958 101325.7429 101325.7393 101325.7429);
    }
}


// ************************************************************************* //
