/*--------------------------------*- C++ -*----------------------------------*\
  =========                 |
  \\      /  F ield         | OpenFOAM: The Open Source CFD Toolbox
   \\    /   O peration     | Website:  https://openfoam.org
    \\  /    A nd           | Version:  7
     \\/     M anipulation  |
\*---------------------------------------------------------------------------*/
FoamFile
{
    version     2.0;
    format      ascii;
    class       volScalarField;
    location    "0.075";
    object      pDyn;
}
// * * * * * * * * * * * * * * * * * * * * * * * * * * * * * * * * * * * * * //

dimensions      [1 -1 -2 0 0 0 0];

internalField   nonuniform List<scalar> 
27
(
1.718325179
1.732469857
1.718325154
1.733235137
1.747770244
1.733235118
1.719875038
1.734060652
1.719874996
1.891771229
1.916799886
1.891771201
1.917906792
1.943125268
1.917906803
1.894036217
1.919189831
1.894036107
1.833591624
1.872067749
1.833591768
1.870276014
1.909070291
1.870275945
1.830565991
1.869251914
1.830566088
)
;

boundaryField
{
    inlet
    {
        type            calculated;
        value           nonuniform List<scalar> 9(2.217813147 2.222724407 2.217810524 2.222725732 2.228226244 2.2227231 2.217813147 2.222724407 2.217810524);
    }
    outlet
    {
        type            calculated;
        value           nonuniform 0();
    }
    walls
    {
        type            calculated;
        value           uniform 0;
    }
    procBoundary0to1
    {
        type            processor;
        value           nonuniform List<scalar> 9(1.58516102 1.636480545 1.585160954 1.627161198 1.67919602 1.627161282 1.569244813 1.620795771 1.569244988);
    }
}


// ************************************************************************* //
