/*--------------------------------*- C++ -*----------------------------------*\
  =========                 |
  \\      /  F ield         | OpenFOAM: The Open Source CFD Toolbox
   \\    /   O peration     | Website:  https://openfoam.org
    \\  /    A nd           | Version:  7
     \\/     M anipulation  |
\*---------------------------------------------------------------------------*/
FoamFile
{
    version     2.0;
    format      ascii;
    class       surfaceScalarField;
    location    "0.075";
    object      rhoPhi;
}
// * * * * * * * * * * * * * * * * * * * * * * * * * * * * * * * * * * * * * //

dimensions      [1 0 -1 0 0 0 0];

internalField   nonuniform List<scalar> 
54
(
4.188468388e-08
5.78360065e-08
3.575325831e-05
-4.188386171e-08
5.706068622e-08
3.591670934e-05
5.78368692e-08
3.575325741e-05
4.127687625e-08
-2.640633984e-08
3.59326058e-05
-4.127489418e-08
-2.577805785e-08
3.609759316e-05
-2.640678158e-08
3.593260588e-05
4.215313875e-08
3.578372576e-05
-4.215173157e-08
3.594781709e-05
3.578372465e-05
4.714206832e-08
3.120725197e-08
3.370575849e-05
-4.71393526e-08
3.094511826e-08
3.398969414e-05
3.120792032e-08
3.370575954e-05
4.709322824e-08
-6.378108962e-08
3.398983809e-05
-4.709018583e-08
-6.366108835e-08
3.427354871e-05
-6.378149386e-08
3.39898363e-05
4.750490493e-08
3.37028104e-05
-4.750175094e-08
3.398826031e-05
3.370280942e-05
5.960069058e-08
1.311645642e-08
-5.959874781e-08
1.361419815e-08
1.31156731e-08
6.006263956e-08
-1.034426307e-07
-6.005982343e-08
-1.034227939e-07
-1.034432948e-07
6.01046279e-08
-6.010384538e-08
)
;

boundaryField
{
    inlet
    {
        type            calculated;
        value           nonuniform List<scalar> 9(-3.659598044e-05 -3.663646607e-05 -3.659593715e-05 -3.663648791e-05 -3.668177936e-05 -3.663644454e-05 -3.659598044e-05 -3.663646607e-05 -3.659593715e-05);
    }
    outlet
    {
        type            calculated;
        value           nonuniform 0();
    }
    walls
    {
        type            calculated;
        value           uniform 0;
    }
    procBoundary0to1
    {
        type            processor;
        value           nonuniform List<scalar> 9(3.120073022e-05 3.162337179e-05 3.120072748e-05 3.157635423e-05 3.199853786e-05 3.157635492e-05 3.111072555e-05 3.153675091e-05 3.111072713e-05);
    }
}


// ************************************************************************* //
