/*--------------------------------*- C++ -*----------------------------------*\
  =========                 |
  \\      /  F ield         | OpenFOAM: The Open Source CFD Toolbox
   \\    /   O peration     | Website:  https://openfoam.org
    \\  /    A nd           | Version:  7
     \\/     M anipulation  |
\*---------------------------------------------------------------------------*/
FoamFile
{
    version     2.0;
    format      ascii;
    class       volScalarField::Internal;
    location    "0.075";
    object      steelCloud:UCoeff;
}
// * * * * * * * * * * * * * * * * * * * * * * * * * * * * * * * * * * * * * //

dimensions      [1 0 0 0 0 0 0];

value           nonuniform List<scalar> 
27
(
3.49209556e-08
3.498791602e-08
3.49209556e-08
3.498791602e-08
3.506264492e-08
3.498791602e-08
3.49209556e-08
3.498791602e-08
3.49209556e-08
3.240389116e-08
3.247322965e-08
3.240389116e-08
3.247322965e-08
3.255326031e-08
3.247322965e-08
3.240389116e-08
3.247322965e-08
3.240389116e-08
2.770392769e-08
2.775145978e-08
2.770392769e-08
2.775145978e-08
2.780483113e-08
2.775145978e-08
2.770392769e-08
2.775145978e-08
2.77039277e-08
)
;


// ************************************************************************* //
