/*--------------------------------*- C++ -*----------------------------------*\
  =========                 |
  \\      /  F ield         | OpenFOAM: The Open Source CFD Toolbox
   \\    /   O peration     | Website:  https://openfoam.org
    \\  /    A nd           | Version:  7
     \\/     M anipulation  |
\*---------------------------------------------------------------------------*/
FoamFile
{
    version     2.0;
    format      ascii;
    class       volScalarField::Internal;
    location    "0.075";
    object      steelCloud:hsTrans;
}
// * * * * * * * * * * * * * * * * * * * * * * * * * * * * * * * * * * * * * //

dimensions      [1 2 -2 0 0 0 0];

value           nonuniform List<scalar> 
27
(
0.0002374469508
0.0002379022518
0.0002374469508
0.0002379022518
0.0002384103751
0.0002379022518
0.0002374469508
0.0002379022518
0.0002374469508
0.0002203320332
0.0002208035041
0.0002203320332
0.0002208035041
0.0002213476769
0.0002208035041
0.0002203320332
0.0002208035041
0.0002203320332
0.0001883743741
0.0001886975712
0.0001883743741
0.0001886975712
0.0001890604726
0.0001886975712
0.0001883743741
0.0001886975712
0.0001883743741
)
;


// ************************************************************************* //
