/*--------------------------------*- C++ -*----------------------------------*\
  =========                 |
  \\      /  F ield         | OpenFOAM: The Open Source CFD Toolbox
   \\    /   O peration     | Website:  https://openfoam.org
    \\  /    A nd           | Version:  7
     \\/     M anipulation  |
\*---------------------------------------------------------------------------*/
FoamFile
{
    version     2.0;
    format      ascii;
    class       volVectorField::Internal;
    location    "0.075";
    object      steelCloud:UTrans;
}
// * * * * * * * * * * * * * * * * * * * * * * * * * * * * * * * * * * * * * //

dimensions      [1 1 -1 0 0 0 0];

value           nonuniform List<vector> 
27
(
(-6.368249305e-08 -2.890399673e-15 -2.921041723e-10)
(-6.380460328e-08 -2.895941972e-15 -2.926642777e-10)
(-6.368249305e-08 -2.890399673e-15 -2.921041723e-10)
(-6.380460328e-08 -2.895941972e-15 -2.926642777e-10)
(-6.394088028e-08 -2.902127266e-15 -2.932893644e-10)
(-6.380460328e-08 -2.895941972e-15 -2.926642777e-10)
(-6.368249305e-08 -2.890399673e-15 -2.921041723e-10)
(-6.380460328e-08 -2.895941972e-15 -2.926642777e-10)
(-6.368249305e-08 -2.890399673e-15 -2.921041723e-10)
(-5.909232831e-08 -2.682062813e-15 -2.710496217e-10)
(-5.921877526e-08 -2.687801945e-15 -2.716296191e-10)
(-5.909232831e-08 -2.682062813e-15 -2.710496217e-10)
(-5.921877526e-08 -2.687801945e-15 -2.716296191e-10)
(-5.936472062e-08 -2.694426064e-15 -2.722990535e-10)
(-5.921877526e-08 -2.687801945e-15 -2.716296191e-10)
(-5.909232831e-08 -2.682062813e-15 -2.710496217e-10)
(-5.921877526e-08 -2.687801945e-15 -2.716296191e-10)
(-5.909232831e-08 -2.682062813e-15 -2.710496217e-10)
(-5.052138902e-08 -2.29304789e-15 -2.317357222e-10)
(-5.06080694e-08 -2.29698211e-15 -2.321333151e-10)
(-5.052138902e-08 -2.29304789e-15 -2.317357222e-10)
(-5.06080694e-08 -2.29698211e-15 -2.321333151e-10)
(-5.070539837e-08 -2.301399645e-15 -2.325797517e-10)
(-5.06080694e-08 -2.29698211e-15 -2.321333151e-10)
(-5.052138902e-08 -2.29304789e-15 -2.317357222e-10)
(-5.06080694e-08 -2.29698211e-15 -2.321333151e-10)
(-5.052138902e-08 -2.29304789e-15 -2.317357223e-10)
)
;


// ************************************************************************* //
