/*--------------------------------*- C++ -*----------------------------------*\
  =========                 |
  \\      /  F ield         | OpenFOAM: The Open Source CFD Toolbox
   \\    /   O peration     | Website:  https://openfoam.org
    \\  /    A nd           | Version:  7
     \\/     M anipulation  |
\*---------------------------------------------------------------------------*/
FoamFile
{
    version     2.0;
    format      ascii;
    class       volScalarField;
    location    "0.075";
    object      Tavg;
}
// * * * * * * * * * * * * * * * * * * * * * * * * * * * * * * * * * * * * * //

dimensions      [0 0 0 1 0 0 0];

internalField   nonuniform List<scalar> 
27
(
302.8697992
302.8697985
302.8697992
302.8698162
302.8698155
302.8698161
302.8698344
302.8698337
302.8698344
303.12314
303.1231373
303.12314
303.1231691
303.1231664
303.1231691
303.1232036
303.1232009
303.1232036
303.55202
303.5520131
303.55202
303.5520758
303.5520689
303.5520758
303.5521451
303.5521382
303.5521451
)
;

boundaryField
{
    inlet
    {
        type            fixedValue;
        value           uniform 298;
    }
    outlet
    {
        type            zeroGradient;
    }
    walls
    {
        type            zeroGradient;
    }
    procBoundary0to1
    {
        type            processor;
        value           nonuniform List<scalar> 9(304.0342523 304.0342396 304.0342522 304.0343492 304.0343366 304.0343492 304.0344708 304.0344581 304.0344708);
    }
}


// ************************************************************************* //
