/*--------------------------------*- C++ -*----------------------------------*\
  =========                 |
  \\      /  F ield         | OpenFOAM: The Open Source CFD Toolbox
   \\    /   O peration     | Website:  https://openfoam.org
    \\  /    A nd           | Version:  7
     \\/     M anipulation  |
\*---------------------------------------------------------------------------*/
FoamFile
{
    version     2.0;
    format      ascii;
    class       volVectorField;
    location    "0.075";
    object      U;
}
// * * * * * * * * * * * * * * * * * * * * * * * * * * * * * * * * * * * * * //

dimensions      [0 1 -1 0 0 0 0];

internalField   nonuniform List<vector> 
27
(
(1.71279066 0.001659986388 -0.007630667266)
(1.719837812 2.220763687e-08 -0.007675186853)
(1.712790644 -0.00165997778 -0.007630636382)
(1.72023097 0.001636675209 0.003479998941)
(1.72744235 5.419974213e-08 0.003501079431)
(1.720230958 -0.001636635528 0.003480010599)
(1.71354477 0.001654012181 -0.01113216829)
(1.720609332 3.827707568e-08 -0.01113671114)
(1.713544745 -0.001653987889 -0.01113218738)
(1.802712765 0.002978247799 -0.01507955333)
(1.814606775 8.690473433e-08 -0.01513513002)
(1.802712731 -0.002978160776 -0.01507955052)
(1.815170745 0.002956829396 0.008240521513)
(1.82707711 8.920457534e-08 0.008301376829)
(1.815170741 -0.002956739059 0.00824052083)
(1.803724257 0.002949625376 -0.02139784326)
(1.815670599 9.972086164e-08 -0.02144094695)
(1.803724187 -0.002949524542 -0.02139783978)
(1.779413649 0.004183302583 -0.02278630786)
(1.797973212 3.294383344e-08 -0.02283164793)
(1.779413675 -0.004183200366 -0.0227862747)
(1.797201065 0.004173269208 0.01332802531)
(1.815734714 7.431200713e-08 0.01346175048)
(1.797201002 -0.004173124648 0.01332797926)
(1.777804357 0.004114981575 -0.03173684036)
(1.796479902 1.434751604e-09 -0.03183461051)
(1.777804364 -0.004114910933 -0.03173691708)
)
;

boundaryField
{
    inlet
    {
        type            interstitialInletVelocity;
        inletVelocity   uniform (1.23 0 0);
        value           nonuniform List<vector> 9((1.939284562 0 0) (1.941431252 0 0) (1.939284562 0 0) (1.941431252 0 0) (1.943832612 0 0) (1.941431252 0 0) (1.939284562 0 0) (1.941431252 0 0) (1.939284562 0 0));
    }
    outlet
    {
        type            pressureInletOutletVelocity;
        phi             alphaRhoPhi;
        value           nonuniform 0();
    }
    walls
    {
        type            noSlip;
    }
    procBoundary0to1
    {
        type            processor;
        value           nonuniform List<vector> 9((1.657835824 0.005066432741 -0.03189969383) (1.684418008 1.631472239e-08 -0.03192457496) (1.657835738 -0.005066197074 -0.03189974372) (1.679825977 0.005049518319 0.01699799915) (1.706430633 -2.515594835e-08 0.01725396052) (1.67982596 -0.005049323944 0.01699796078) (1.649250169 0.004936345644 -0.04276263469) (1.676085351 3.242498522e-09 -0.04289065814) (1.649250209 -0.004936123138 -0.04276261693));
    }
}


// ************************************************************************* //
