/*--------------------------------*- C++ -*----------------------------------*\
  =========                 |
  \\      /  F ield         | OpenFOAM: The Open Source CFD Toolbox
   \\    /   O peration     | Website:  https://openfoam.org
    \\  /    A nd           | Version:  7
     \\/     M anipulation  |
\*---------------------------------------------------------------------------*/
FoamFile
{
    version     2.0;
    format      ascii;
    class       volVectorField;
    location    "0.075";
    object      Uavg;
}
// * * * * * * * * * * * * * * * * * * * * * * * * * * * * * * * * * * * * * //

dimensions      [0 1 -1 0 0 0 0];

internalField   nonuniform List<vector> 
27
(
(1.247394097 5.109593361e-05 -0.01021303784)
(1.247398249 4.171831119e-08 -0.01021304253)
(1.247394096 -5.101249687e-05 -0.01021303772)
(1.247361004 5.106215383e-05 -0.01025950845)
(1.247365161 4.184074688e-08 -0.0102595103)
(1.247361004 -5.097847327e-05 -0.01025950839)
(1.247319601 5.103182793e-05 -0.01032284871)
(1.247323758 4.194932774e-08 -0.01032285012)
(1.2473196 -5.094793056e-05 -0.01032284872)
(1.219682438 5.366452874e-05 -0.0112459844)
(1.219686917 4.299317728e-08 -0.01124598394)
(1.219682437 -5.357851066e-05 -0.01124598428)
(1.219620422 5.361370989e-05 -0.0112949126)
(1.219624906 4.313890689e-08 -0.01129491)
(1.219620422 -5.35274013e-05 -0.01129491255)
(1.219549488 5.356457424e-05 -0.01136209984)
(1.219553974 4.326780074e-08 -0.01136209788)
(1.219549487 -5.347800809e-05 -0.01136209986)
(1.182742219 5.993981881e-05 -0.01320548611)
(1.182747851 4.549478639e-08 -0.01320547131)
(1.182742218 -5.984870461e-05 -0.01320548597)
(1.182618255 5.984748313e-05 -0.01326009795)
(1.182623896 4.569892731e-08 -0.01326008229)
(1.182618254 -5.975596212e-05 -0.01326009791)
(1.182483214 5.975328598e-05 -0.01333672362)
(1.182488864 4.587738556e-08 -0.01333671091)
(1.182483213 -5.966140823e-05 -0.01333672368)
)
;

boundaryField
{
    inlet
    {
        type            interstitialInletVelocity;
        inletVelocity   uniform (1.23 0 0);
        value           uniform (1.23 0 0);
    }
    outlet
    {
        type            pressureInletOutletVelocity;
        phi             alphaRhoPhi;
        value           nonuniform 0();
    }
    walls
    {
        type            noSlip;
    }
    procBoundary0to1
    {
        type            processor;
        value           nonuniform List<vector> 9((1.159965808 7.168177022e-05 -0.01576820424) (1.159974904 4.901807523e-08 -0.01576816127) (1.159965807 -7.158341981e-05 -0.01576820405) (1.159748918 7.151481653e-05 -0.01583082577) (1.159758036 4.931654992e-08 -0.01583078214) (1.159748917 -7.141587213e-05 -0.01583082573) (1.159514336 7.133982538e-05 -0.01592711378) (1.159523477 4.957469027e-08 -0.01592707918) (1.159514335 -7.124036571e-05 -0.01592711389));
    }
}


// ************************************************************************* //
