/*--------------------------------*- C++ -*----------------------------------*\
  =========                 |
  \\      /  F ield         | OpenFOAM: The Open Source CFD Toolbox
   \\    /   O peration     | Website:  https://openfoam.org
    \\  /    A nd           | Version:  7
     \\/     M anipulation  |
\*---------------------------------------------------------------------------*/
FoamFile
{
    version     2.0;
    format      ascii;
    class       surfaceScalarField;
    location    "0.035";
    object      alphaRhoPhi;
}
// * * * * * * * * * * * * * * * * * * * * * * * * * * * * * * * * * * * * * //

dimensions      [1 0 -1 0 0 0 0];

internalField   nonuniform List<scalar> 
117
(
2.632188093e-08
3.631685593e-08
2.315193102e-05
-2.625087282e-08
3.574190343e-08
2.323139362e-05
3.630147254e-08
2.315201104e-05
2.58549079e-08
-1.659792356e-08
2.324160811e-05
-2.582286059e-08
-1.617595638e-08
2.331815374e-05
-1.659387339e-08
2.324162283e-05
2.646337002e-08
2.317147347e-05
-2.64072329e-08
2.32512311e-05
2.31715302e-05
3.069470557e-08
1.973656118e-08
2.31060995e-05
-3.081153164e-08
1.958983943e-08
2.327795196e-05
1.976959264e-08
2.310603376e-05
3.068838796e-08
-4.232939764e-08
2.327762018e-05
-3.070246868e-08
-4.219571556e-08
2.344598703e-05
-4.23345533e-08
2.327764941e-05
3.096360464e-08
2.310277433e-05
-3.104311699e-08
2.327566264e-05
2.310274775e-05
4.181965552e-08
7.891798389e-09
2.305687219e-05
-4.188545973e-08
8.156241303e-09
2.33540907e-05
7.880280989e-09
2.305673629e-05
4.210974019e-08
-7.425976651e-08
2.331823343e-05
-4.220593301e-08
-7.426677911e-08
2.361342588e-05
-7.427347177e-08
2.331817279e-05
4.214934039e-08
2.298679877e-05
-4.224914434e-08
2.328635429e-05
2.298665596e-05
4.87088808e-08
-3.230374774e-08
2.302852942e-05
-4.893139628e-08
-3.13111642e-08
2.347147758e-05
-3.220092818e-08
2.302807589e-05
4.927059416e-08
-1.24162576e-07
2.334919953e-05
-4.928321594e-08
-1.237691685e-07
2.379316949e-05
-1.241667483e-07
2.334922089e-05
4.934069498e-08
2.28012592e-05
-4.94488782e-08
2.324969088e-05
2.280100161e-05
4.617507155e-08
-1.309204858e-07
2.308056518e-05
-4.616478693e-08
-1.288632739e-07
2.366067869e-05
-1.309497196e-07
2.308014498e-05
4.660036339e-08
-2.168334815e-07
2.335637318e-05
-4.662237764e-08
-2.155297568e-07
2.394162479e-05
-2.16858536e-07
2.335636733e-05
4.664172328e-08
2.250480205e-05
-4.668671423e-08
2.309522226e-05
2.250447565e-05
3.124973712e-08
-3.616836858e-07
-3.124273091e-08
-3.567361866e-07
-3.616493538e-07
3.131156739e-08
-4.267275262e-07
-3.121960355e-08
-4.224653401e-07
-4.267429493e-07
3.094509703e-08
-3.090178093e-08
)
;

boundaryField
{
    inlet
    {
        type            calculated;
        value           nonuniform List<scalar> 9(-2.321116951e-05 -2.321115417e-05 -2.321114211e-05 -2.321116798e-05 -2.321115265e-05 -2.321114056e-05 -2.321116951e-05 -2.321115417e-05 -2.321114211e-05);
    }
    outlet
    {
        type            calculated;
        value           nonuniform List<scalar> 9(2.335339659e-05 2.333323466e-05 2.198900221e-05 2.402331388e-05 2.401403039e-05 2.267747775e-05 2.335295044e-05 2.333337094e-05 2.198870296e-05);
    }
    walls
    {
        type            calculated;
        value           uniform 0;
    }
}


// ************************************************************************* //
