/*--------------------------------*- C++ -*----------------------------------*\
  =========                 |
  \\      /  F ield         | OpenFOAM: The Open Source CFD Toolbox
   \\    /   O peration     | Website:  https://openfoam.org
    \\  /    A nd           | Version:  7
     \\/     M anipulation  |
\*---------------------------------------------------------------------------*/
FoamFile
{
    version     2.0;
    format      ascii;
    class       volScalarField;
    location    "0.035";
    object      kappaavg;
}
// * * * * * * * * * * * * * * * * * * * * * * * * * * * * * * * * * * * * * //

dimensions      [1 1 -3 -1 0 0 0];

internalField   nonuniform List<scalar> 
54
(
0.02727989688
0.02727989668
0.02727989691
0.02727990207
0.02727990187
0.0272799021
0.02727990769
0.02727990748
0.02727990771
0.02730635177
0.02730635128
0.02730635181
0.0273063596
0.02730635911
0.02730635964
0.02730636844
0.02730636795
0.02730636848
0.02735218968
0.02735218857
0.02735218976
0.02735220304
0.02735220192
0.0273522031
0.02735221865
0.02735221753
0.02735221871
0.02740541473
0.02740541266
0.02740541483
0.02740543624
0.02740543417
0.02740543634
0.0274054619
0.02740545981
0.02740546199
0.02745202306
0.02745201989
0.02745202318
0.02745205362
0.02745205044
0.02745205373
0.02745209048
0.02745208728
0.02745209059
0.02747925772
0.02747925374
0.02747925785
0.02747929462
0.02747929063
0.02747929475
0.02747933939
0.02747933537
0.02747933951
)
;

boundaryField
{
    inlet
    {
        type            calculated;
        value           uniform 0.02688265352;
    }
    outlet
    {
        type            calculated;
        value           nonuniform List<scalar> 9(0.02776977741 0.02776215531 0.02777675429 0.02775838604 0.02775103804 0.0277650127 0.02776978698 0.02776215394 0.02777676273);
    }
    walls
    {
        type            calculated;
        value           nonuniform List<scalar> 
72
(
0.02702616486
0.02716327431
0.02729695311
0.02743638359
0.02759218668
0.02776977741
0.02702642469
0.02716326875
0.0272959192
0.0274331883
0.02758550034
0.02775838604
0.02702616485
0.02716327092
0.02729695865
0.02743638757
0.02759220483
0.02776978698
0.02702616459
0.02716319087
0.02729699931
0.02743705716
0.02759467959
0.02777675429
0.02702642443
0.027163188
0.02729595247
0.02743382825
0.02758785722
0.0277650127
0.02702616459
0.02716318881
0.02729700223
0.0274370637
0.02759468585
0.02777676273
0.02702616485
0.02702642455
0.02702616459
0.02716327092
0.02716322803
0.02716318881
0.02729695865
0.02729593432
0.02729700223
0.02743638757
0.02743352739
0.0274370637
0.02759220483
0.02758679414
0.02759468585
0.02776978698
0.02776215394
0.02777676273
0.02702616486
0.02702642455
0.02702616459
0.02716327431
0.02716322756
0.02716319087
0.02729695311
0.02729593426
0.02729699931
0.02743638359
0.0274335231
0.02743705716
0.02759218668
0.02758679603
0.02759467959
0.02776977741
0.02776215531
0.02777675429
)
;
    }
}


// ************************************************************************* //
