/*--------------------------------*- C++ -*----------------------------------*\
  =========                 |
  \\      /  F ield         | OpenFOAM: The Open Source CFD Toolbox
   \\    /   O peration     | Website:  https://openfoam.org
    \\  /    A nd           | Version:  7
     \\/     M anipulation  |
\*---------------------------------------------------------------------------*/
FoamFile
{
    version     2.0;
    format      ascii;
    class       surfaceScalarField;
    location    "0.035";
    object      phi;
}
// * * * * * * * * * * * * * * * * * * * * * * * * * * * * * * * * * * * * * //

dimensions      [0 3 -1 0 0 0 0];

internalField   nonuniform List<scalar> 
117
(
3.543315729e-08
4.888789106e-08
3.06042271e-05
-3.533756983e-08
4.817091825e-08
3.074339782e-05
4.886718271e-08
3.060433166e-05
3.484579449e-08
-2.23432875e-08
3.075689956e-05
-3.480260292e-08
-2.180105292e-08
3.089723847e-05
-2.233783536e-08
3.075691907e-05
3.562366428e-08
3.063003009e-05
-3.554809529e-08
3.076962024e-05
3.063010431e-05
3.990479155e-08
2.565858539e-08
2.901931829e-05
-4.005667022e-08
2.549818495e-08
2.926087841e-05
2.570152707e-08
2.901923559e-05
3.994405178e-08
-5.503039519e-08
2.926043125e-05
-3.996237931e-08
-5.492196561e-08
2.95019144e-05
-5.50370965e-08
2.926046799e-05
4.025424934e-08
2.901509414e-05
-4.03576184e-08
2.925794742e-05
2.901506051e-05
5.084972741e-08
9.595863561e-09
2.699887346e-05
-5.092974245e-08
9.924517162e-09
2.735899788e-05
9.581859552e-09
2.69987171e-05
5.123913475e-08
-9.029456824e-08
2.731711842e-05
-5.135618212e-08
-9.03678181e-08
2.76769262e-05
-9.031123424e-08
2.731704862e-05
5.125058305e-08
2.691708483e-05
-5.137193836e-08
2.727989184e-05
2.69169202e-05
5.503594288e-08
-3.650003562e-08
2.528073046e-05
-5.528736586e-08
-3.538723874e-08
2.576875897e-05
-3.638386386e-08
2.528024024e-05
5.568489142e-08
-1.402928109e-07
2.563518458e-05
-5.569915895e-08
-1.398826906e-07
2.61251135e-05
-1.40297543e-07
2.563520953e-05
5.575090109e-08
2.503250148e-05
-5.587314367e-08
2.552647802e-05
2.503222381e-05
4.930113261e-08
-1.397868142e-07
2.430668819e-05
-4.929016335e-08
-1.375797233e-07
2.491246356e-05
-1.398180624e-07
2.430625744e-05
4.975352458e-08
-2.31527538e-07
2.459421141e-05
-4.977702899e-08
-2.301172289e-07
2.520566347e-05
-2.315543219e-07
2.459420565e-05
4.980331467e-08
2.370419557e-05
-4.985136153e-08
2.432080823e-05
2.370385885e-05
3.246274469e-08
-3.757479177e-07
-3.245547459e-08
-3.704892855e-07
-3.757123457e-07
3.252086444e-08
-4.433751699e-07
-3.242534898e-08
-4.388028118e-07
-4.433912739e-07
3.215389669e-08
-3.210889414e-08
)
;

boundaryField
{
    inlet
    {
        type            calculated;
        value           nonuniform List<scalar> 9(-3.102855299e-05 -3.106290004e-05 -3.102855299e-05 -3.106290004e-05 -3.11013218e-05 -3.106290004e-05 -3.102855299e-05 -3.106290004e-05 -3.102855299e-05);
    }
    outlet
    {
        type            calculated;
        value           nonuniform List<scalar> 9(2.426391352e-05 2.423823648e-05 2.285189164e-05 2.495178043e-05 2.493761717e-05 2.355932126e-05 2.426346204e-05 2.423837826e-05 2.285158861e-05);
    }
    walls
    {
        type            calculated;
        value           uniform 0;
    }
}


// ************************************************************************* //
