/*--------------------------------*- C++ -*----------------------------------*\
  =========                 |
  \\      /  F ield         | OpenFOAM: The Open Source CFD Toolbox
   \\    /   O peration     | Website:  https://openfoam.org
    \\  /    A nd           | Version:  7
     \\/     M anipulation  |
\*---------------------------------------------------------------------------*/
FoamFile
{
    version     2.0;
    format      ascii;
    class       volScalarField::Internal;
    location    "0.035";
    object      steelCloud:UCoeff;
}
// * * * * * * * * * * * * * * * * * * * * * * * * * * * * * * * * * * * * * //

dimensions      [1 0 0 0 0 0 0];

value           nonuniform List<scalar> 
54
(
3.500533803e-08
3.507246024e-08
3.500533803e-08
3.507246024e-08
3.514736972e-08
3.507246024e-08
3.500533803e-08
3.507246024e-08
3.500533803e-08
3.248219139e-08
3.255169743e-08
3.248219139e-08
3.255169743e-08
3.263192147e-08
3.255169743e-08
3.248219139e-08
3.255169743e-08
3.248219139e-08
2.777087101e-08
2.781851795e-08
2.777087101e-08
2.781851795e-08
2.787201827e-08
2.781851795e-08
2.777087101e-08
2.781851795e-08
2.777087101e-08
2.226790362e-08
2.229210996e-08
2.226790362e-08
2.229210996e-08
2.231842742e-08
2.229210996e-08
2.226790362e-08
2.229210996e-08
2.226790362e-08
1.762843653e-08
1.763874826e-08
1.762843653e-08
1.763874826e-08
1.764966558e-08
1.763874826e-08
1.762843653e-08
1.763874826e-08
1.762843653e-08
1.50334366e-08
1.503816768e-08
1.50334366e-08
1.503816768e-08
1.504307597e-08
1.503816768e-08
1.50334366e-08
1.503816768e-08
1.50334366e-08
)
;


// ************************************************************************* //
