/*--------------------------------*- C++ -*----------------------------------*\
  =========                 |
  \\      /  F ield         | OpenFOAM: The Open Source CFD Toolbox
   \\    /   O peration     | Website:  https://openfoam.org
    \\  /    A nd           | Version:  7
     \\/     M anipulation  |
\*---------------------------------------------------------------------------*/
FoamFile
{
    version     2.0;
    format      ascii;
    class       volVectorField::Internal;
    location    "0.035";
    object      steelCloud:UTrans;
}
// * * * * * * * * * * * * * * * * * * * * * * * * * * * * * * * * * * * * * //

dimensions      [1 1 -1 0 0 0 0];

value           nonuniform List<vector> 
54
(
(-6.379147466e-08 2.177115391e-13 -2.850342317e-10)
(-6.391379387e-08 2.181289977e-13 -2.855807806e-10)
(-6.379147466e-08 2.177115391e-13 -2.850342317e-10)
(-6.391379387e-08 2.181289977e-13 -2.855807806e-10)
(-6.405030408e-08 2.185948883e-13 -2.861907381e-10)
(-6.391379387e-08 2.181289977e-13 -2.855807806e-10)
(-6.379147466e-08 2.177115391e-13 -2.850342317e-10)
(-6.391379387e-08 2.181289977e-13 -2.855807806e-10)
(-6.379147466e-08 2.177115391e-13 -2.850342317e-10)
(-5.919345465e-08 2.020191285e-13 -2.644892748e-10)
(-5.932011799e-08 2.02451413e-13 -2.650552342e-10)
(-5.919345465e-08 2.020191285e-13 -2.644892748e-10)
(-5.932011799e-08 2.02451413e-13 -2.650552342e-10)
(-5.946631312e-08 2.029503569e-13 -2.657084659e-10)
(-5.932011799e-08 2.02451413e-13 -2.650552342e-10)
(-5.919345465e-08 2.020191285e-13 -2.644892748e-10)
(-5.932011799e-08 2.02451413e-13 -2.650552342e-10)
(-5.919345465e-08 2.020191285e-13 -2.644892748e-10)
(-5.060784767e-08 1.727176314e-13 -2.261269089e-10)
(-5.069467639e-08 1.730139659e-13 -2.265148786e-10)
(-5.060784767e-08 1.727176314e-13 -2.261269089e-10)
(-5.069467639e-08 1.730139659e-13 -2.265148786e-10)
(-5.079217193e-08 1.733467047e-13 -2.269505099e-10)
(-5.069467639e-08 1.730139659e-13 -2.265148786e-10)
(-5.060784767e-08 1.727176314e-13 -2.261269089e-10)
(-5.069467639e-08 1.730139659e-13 -2.265148786e-10)
(-5.060784767e-08 1.727176314e-13 -2.261269089e-10)
(-4.057959413e-08 1.384925798e-13 -1.813184834e-10)
(-4.062370622e-08 1.386431283e-13 -1.815155858e-10)
(-4.057959413e-08 1.384925798e-13 -1.813184834e-10)
(-4.062370622e-08 1.386431283e-13 -1.815155858e-10)
(-4.067166546e-08 1.388068066e-13 -1.817298782e-10)
(-4.062370622e-08 1.386431283e-13 -1.815155858e-10)
(-4.057959413e-08 1.384925798e-13 -1.813184834e-10)
(-4.062370622e-08 1.386431283e-13 -1.815155858e-10)
(-4.057959413e-08 1.384925798e-13 -1.813184834e-10)
(-3.212492795e-08 1.096379656e-13 -1.435411896e-10)
(-3.214371939e-08 1.097020982e-13 -1.436251538e-10)
(-3.212492795e-08 1.096379656e-13 -1.435411896e-10)
(-3.214371939e-08 1.097020982e-13 -1.436251538e-10)
(-3.21636144e-08 1.097699972e-13 -1.437140491e-10)
(-3.214371939e-08 1.097020982e-13 -1.436251538e-10)
(-3.212492795e-08 1.096379656e-13 -1.435411896e-10)
(-3.214371939e-08 1.097020982e-13 -1.436251538e-10)
(-3.212492795e-08 1.096379656e-13 -1.435411896e-10)
(-2.739596714e-08 9.349867206e-14 -1.224111605e-10)
(-2.740458874e-08 9.35280964e-14 -1.224496837e-10)
(-2.739596714e-08 9.349867206e-14 -1.224111605e-10)
(-2.740458874e-08 9.35280964e-14 -1.224496837e-10)
(-2.741353331e-08 9.355862298e-14 -1.2248965e-10)
(-2.740458874e-08 9.35280964e-14 -1.224496837e-10)
(-2.739596714e-08 9.349867206e-14 -1.224111605e-10)
(-2.740458874e-08 9.35280964e-14 -1.224496837e-10)
(-2.739596714e-08 9.349867206e-14 -1.224111605e-10)
)
;


// ************************************************************************* //
