/*--------------------------------*- C++ -*----------------------------------*\
  =========                 |
  \\      /  F ield         | OpenFOAM: The Open Source CFD Toolbox
   \\    /   O peration     | Website:  https://openfoam.org
    \\  /    A nd           | Version:  7
     \\/     M anipulation  |
\*---------------------------------------------------------------------------*/
FoamFile
{
    version     2.0;
    format      ascii;
    class       volScalarField;
    location    "0.035";
    object      T;
}
// * * * * * * * * * * * * * * * * * * * * * * * * * * * * * * * * * * * * * //

dimensions      [0 0 0 1 0 0 0];

internalField   nonuniform List<scalar> 
54
(
299.9175673
299.921166
299.9175672
299.9211641
299.9251818
299.9211641
299.917564
299.9211627
299.917564
301.6848207
301.6858194
301.6847968
301.685147
301.6873837
301.6851478
301.6835075
301.6845139
301.6834924
303.2501881
303.2406892
303.2502096
303.2403718
303.2326897
303.2403711
303.2497742
303.2401658
303.2497842
304.6842059
304.6532627
304.6842472
304.6560621
304.6275636
304.6560905
304.6899341
304.6585953
304.6899831
306.1478994
306.081217
306.1480439
306.0941513
306.0306138
306.0941585
306.172582
306.1043618
306.1726583
307.8016075
307.6828179
307.8017606
307.7235185
307.6083307
307.7235213
307.8766284
307.7532477
307.8767357
)
;

boundaryField
{
    inlet
    {
        type            fixedValue;
        value           uniform 298;
    }
    outlet
    {
        type            zeroGradient;
    }
    walls
    {
        type            zeroGradient;
    }
}


// ************************************************************************* //
