/*--------------------------------*- C++ -*----------------------------------*\
  =========                 |
  \\      /  F ield         | OpenFOAM: The Open Source CFD Toolbox
   \\    /   O peration     | Website:  https://openfoam.org
    \\  /    A nd           | Version:  7
     \\/     M anipulation  |
\*---------------------------------------------------------------------------*/
FoamFile
{
    version     2.0;
    format      ascii;
    class       volVectorField;
    location    "0.035";
    object      U;
}
// * * * * * * * * * * * * * * * * * * * * * * * * * * * * * * * * * * * * * //

dimensions      [0 1 -1 0 0 0 0];

internalField   nonuniform List<vector> 
54
(
(1.711123642 0.001644957998 -0.007624250461)
(1.718130697 2.410524985e-06 -0.007672885533)
(1.711126834 -0.001638951873 -0.007625961805)
(1.718522955 0.001617483527 0.003457556208)
(1.725689019 6.440875974e-07 0.003476670793)
(1.718525653 -0.001613171545 0.003456936489)
(1.711874442 0.001636502405 -0.0110884387)
(1.718897202 1.727210183e-06 -0.01109122581)
(1.711877763 -0.001631157836 -0.01108738812)
(1.801404504 0.002949018932 -0.01505895581)
(1.813192796 -7.512276091e-06 -0.01511016812)
(1.801411663 -0.002948788142 -0.01505398342)
(1.813742218 0.002933554062 0.008118846264)
(1.825522603 -2.57580649e-06 0.008184829248)
(1.813742344 -0.002928419637 0.008120455887)
(1.802376575 0.002924887456 -0.02132356097)
(1.814205179 -5.705037143e-06 -0.02136972476)
(1.802380619 -0.00292288863 -0.0213265685)
(1.779176961 0.004157342186 -0.02264638338)
(1.797517687 -6.420876134e-06 -0.0227028799)
(1.779166311 -0.004152865172 -0.02264790611)
(1.796691495 0.004145568802 0.01300676117)
(1.815004729 -7.664299356e-06 0.01313571484)
(1.796691442 -0.00414237684 0.013005132)
(1.777402128 0.00408750664 -0.03155649016)
(1.795858652 -7.955882807e-06 -0.03166272929)
(1.777396756 -0.00408460032 -0.03155673241)
(1.658458436 0.005000101468 -0.03145303874)
(1.684710407 -1.369875977e-05 -0.03149513415)
(1.658438165 -0.005001028796 -0.0314454526)
(1.680014092 0.004997388434 0.01633218974)
(1.706300099 -4.807845413e-06 0.01658394465)
(1.68001207 -0.004989294984 0.01633746138)
(1.649520344 0.004885330864 -0.04222649174)
(1.676014667 -8.718867163e-06 -0.04238285759)
(1.649504081 -0.004881240077 -0.04223056943)
(1.552180966 0.00530801609 -0.04265876911)
(1.586415246 -3.635673859e-06 -0.04268684967)
(1.552154716 -0.005298055511 -0.04266185293)
(1.573776724 0.005265614611 0.01539700631)
(1.608205981 -5.38884775e-06 0.01582194086)
(1.573775023 -0.00525745207 0.01539407764)
(1.528273568 0.00507651585 -0.05396553435)
(1.562994427 -6.28651723e-06 -0.05415177958)
(1.528254085 -0.00506929196 -0.05396632129)
(1.505522217 0.004825671306 -0.05813482452)
(1.547874278 -3.769563094e-06 -0.05810947631)
(1.505491348 -0.004815892935 -0.05813365441)
(1.511210703 0.004745015196 0.004768636377)
(1.554215367 -1.934497466e-07 0.005539139852)
(1.511219301 -0.004731596763 0.004769689821)
(1.434039707 0.004501599079 -0.06909179777)
(1.477508816 -2.435150292e-06 -0.06923811795)
(1.434020993 -0.004490447492 -0.06909388673)
)
;

boundaryField
{
    inlet
    {
        type            interstitialInletVelocity;
        inletVelocity   uniform (1.23 0 0);
        value           nonuniform List<vector> 9((1.939284562 0 0) (1.941431252 0 0) (1.939284562 0 0) (1.941431252 0 0) (1.943832612 0 0) (1.941431252 0 0) (1.939284562 0 0) (1.941431252 0 0) (1.939284562 0 0));
    }
    outlet
    {
        type            pressureInletOutletVelocity;
        phi             alphaRhoPhi;
        value           nonuniform List<vector> 9((1.505522217 0.004825671306 -0.05813482452) (1.511210703 0.004745015196 0.004768636377) (1.434039707 0.004501599079 -0.06909179777) (1.547874278 -3.769563094e-06 -0.05810947631) (1.554215367 -1.934497466e-07 0.005539139852) (1.477508816 -2.435150292e-06 -0.06923811795) (1.505491348 -0.004815892935 -0.05813365441) (1.511219301 -0.004731596763 0.004769689821) (1.434020993 -0.004490447492 -0.06909388673));
    }
    walls
    {
        type            noSlip;
    }
}


// ************************************************************************* //
