/*--------------------------------*- C++ -*----------------------------------*\
  =========                 |
  \\      /  F ield         | OpenFOAM: The Open Source CFD Toolbox
   \\    /   O peration     | Website:  https://openfoam.org
    \\  /    A nd           | Version:  7
     \\/     M anipulation  |
\*---------------------------------------------------------------------------*/
FoamFile
{
    version     2.0;
    format      ascii;
    class       volVectorField;
    location    "0.035";
    object      Uavg;
}
// * * * * * * * * * * * * * * * * * * * * * * * * * * * * * * * * * * * * * //

dimensions      [0 1 -1 0 0 0 0];

internalField   nonuniform List<vector> 
54
(
(1.245515495 5.081157027e-05 -0.009952845474)
(1.245519605 8.051397148e-07 -0.009952860882)
(1.24551554 -4.919641185e-05 -0.00995286337)
(1.245482008 5.077107134e-05 -0.009998200046)
(1.245486122 7.96317848e-07 -0.009998212959)
(1.245482053 -4.91734924e-05 -0.009998218872)
(1.245440332 5.073399231e-05 -0.01006020213)
(1.245444445 7.872949926e-07 -0.01006021492)
(1.245440376 -4.91543896e-05 -0.0100602217)
(1.218014605 5.314734667e-05 -0.01092366154)
(1.218019006 9.435449917e-07 -0.01092367428)
(1.218014607 -5.125492366e-05 -0.01092368005)
(1.217952454 5.309397373e-05 -0.01097109301)
(1.217956858 9.348877907e-07 -0.01097110419)
(1.217952457 -5.121879737e-05 -0.01097111263)
(1.217881523 5.304182803e-05 -0.01103637821)
(1.21788593 9.258867118e-07 -0.01103639059)
(1.217881527 -5.118454585e-05 -0.01103639867)
(1.181417037 5.889944814e-05 -0.01276697111)
(1.181422515 1.257253629e-06 -0.01276697662)
(1.181416963 -5.638024359e-05 -0.01276698932)
(1.181293575 5.881513789e-05 -0.01281929485)
(1.181299061 1.249809852e-06 -0.01281929994)
(1.181293504 -5.631065823e-05 -0.01281931374)
(1.181159217 5.872870023e-05 -0.0128926898)
(1.181164712 1.242326559e-06 -0.01289269824)
(1.181159149 -5.623908401e-05 -0.01289270905)
(1.158997808 6.977323657e-05 -0.01518120566)
(1.159006611 1.705438375e-06 -0.01518119347)
(1.158997644 -6.635771781e-05 -0.01518121619)
(1.158782556 6.963787167e-05 -0.01524044788)
(1.15879138 1.703014202e-06 -0.01524043666)
(1.158782399 -6.622730153e-05 -0.01524046101)
(1.158549908 6.949224063e-05 -0.01533124782)
(1.158558751 1.699188272e-06 -0.01533124795)
(1.158549755 -6.608929087e-05 -0.01533126367)
(1.157188499 8.254934702e-05 -0.01752918765)
(1.157201749 2.160310723e-06 -0.01752915808)
(1.157188257 -7.822382393e-05 -0.01752919664)
(1.15687146 8.234884461e-05 -0.01759569348)
(1.156884749 2.160187902e-06 -0.01759566378)
(1.156871232 -7.802357127e-05 -0.01759570505)
(1.156528332 8.213152437e-05 -0.01770782918)
(1.156541658 2.158640369e-06 -0.01770781891)
(1.156528112 -7.780929103e-05 -0.01770784337)
(1.16293527 9.069450589e-05 -0.01899407133)
(1.162951465 2.445163044e-06 -0.01899402632)
(1.162934985 -8.579896639e-05 -0.01899407728)
(1.162546597 9.045127686e-05 -0.01906544445)
(1.162562849 2.447541632e-06 -0.01906539804)
(1.162546333 -8.555109631e-05 -0.01906545358)
(1.162126092 9.018730175e-05 -0.01919114539)
(1.162142393 2.447916486e-06 -0.01919112412)
(1.162125838 -8.528635037e-05 -0.01919115795)
)
;

boundaryField
{
    inlet
    {
        type            interstitialInletVelocity;
        inletVelocity   uniform (1.23 0 0);
        value           uniform (1.23 0 0);
    }
    outlet
    {
        type            pressureInletOutletVelocity;
        phi             alphaRhoPhi;
        value           nonuniform List<vector> 9((1.504342111 0.004609494447 -0.05641487813) (1.510236015 0.004550634737 0.004045687038) (1.434257142 0.004326018748 -0.06678014487) (1.546134601 -3.493899744e-06 -0.05645083175) (1.552669407 8.025687071e-06 0.004759844413) (1.477022905 2.748522058e-06 -0.06699391887) (1.504299952 -0.004600364977 -0.0564069484) (1.510259762 -0.00452994886 0.004051807239) (1.43423945 -0.004310535895 -0.06678435706));
    }
    walls
    {
        type            noSlip;
    }
}


// ************************************************************************* //
