/*--------------------------------*- C++ -*----------------------------------*\
  =========                 |
  \\      /  F ield         | OpenFOAM: The Open Source CFD Toolbox
   \\    /   O peration     | Website:  https://openfoam.org
    \\  /    A nd           | Version:  7
     \\/     M anipulation  |
\*---------------------------------------------------------------------------*/
FoamFile
{
    version     2.0;
    format      ascii;
    class       surfaceScalarField;
    location    "0.065";
    object      alphaRhoPhi;
}
// * * * * * * * * * * * * * * * * * * * * * * * * * * * * * * * * * * * * * //

dimensions      [1 0 -1 0 0 0 0];

internalField   nonuniform List<scalar> 
54
(
2.654274802e-08
3.665402744e-08
2.314795344e-05
-2.654189218e-08
3.611970026e-08
2.322811697e-05
3.665448584e-08
2.314795332e-05
2.612627204e-08
-1.673091434e-08
2.323839705e-05
-2.612486493e-08
-1.631328238e-08
2.331581656e-05
-1.673115439e-08
2.323839729e-05
2.671268889e-08
2.316767899e-05
-2.671152281e-08
2.3248234e-05
2.316767865e-05
3.111176195e-08
2.059447721e-08
2.309625317e-05
-3.110937369e-08
2.039663821e-08
2.326994517e-05
2.059482026e-08
2.3096255e-05
3.104224569e-08
-4.209708573e-08
2.327005024e-05
-3.103975567e-08
-4.196818411e-08
2.344026891e-05
-4.20973601e-08
2.327004977e-05
3.135083902e-08
2.309423742e-05
-3.134824724e-08
2.326896511e-05
2.309423778e-05
4.226401545e-08
9.287017149e-09
-4.226230307e-08
9.63163682e-09
9.286538024e-09
4.255968282e-08
-7.337379439e-08
-4.255709273e-08
-7.330600731e-08
-7.337432919e-08
4.262069974e-08
-4.261973668e-08
)
;

boundaryField
{
    inlet
    {
        type            calculated;
        value           nonuniform List<scalar> 9(-2.321116654e-05 -2.321115116e-05 -2.321113909e-05 -2.3211165e-05 -2.321114963e-05 -2.321113752e-05 -2.321116654e-05 -2.321115116e-05 -2.321113909e-05);
    }
    outlet
    {
        type            calculated;
        value           nonuniform 0();
    }
    walls
    {
        type            calculated;
        value           uniform 0;
    }
    procBoundary0to1
    {
        type            processor;
        value           nonuniform List<scalar> 9(2.304480013e-05 2.334493673e-05 2.304479963e-05 2.33102487e-05 2.360840898e-05 2.331025073e-05 2.297833646e-05 2.328099661e-05 2.297833899e-05);
    }
}


// ************************************************************************* //
