/*--------------------------------*- C++ -*----------------------------------*\
  =========                 |
  \\      /  F ield         | OpenFOAM: The Open Source CFD Toolbox
   \\    /   O peration     | Website:  https://openfoam.org
    \\  /    A nd           | Version:  7
     \\/     M anipulation  |
\*---------------------------------------------------------------------------*/
FoamFile
{
    version     2.0;
    format      ascii;
    class       volScalarField;
    location    "0.065";
    object      cpavg;
}
// * * * * * * * * * * * * * * * * * * * * * * * * * * * * * * * * * * * * * //

dimensions      [0 2 -2 -1 0 0 0];

internalField   nonuniform List<scalar> 
27
(
1011.623082
1011.623082
1011.623082
1011.623083
1011.623083
1011.623083
1011.623085
1011.623084
1011.623085
1011.638217
1011.638217
1011.638217
1011.638219
1011.638219
1011.638219
1011.638221
1011.638221
1011.638221
1011.663867
1011.663866
1011.663867
1011.66387
1011.66387
1011.66387
1011.663875
1011.663874
1011.663875
)
;

boundaryField
{
    inlet
    {
        type            calculated;
        value           uniform 1011.338357;
    }
    outlet
    {
        type            calculated;
        value           nonuniform 0();
    }
    walls
    {
        type            calculated;
        value           nonuniform List<scalar> 
36
(
1011.454138
1011.564267
1011.660111
1011.454359
1011.564344
1011.659642
1011.454138
1011.564267
1011.660111
1011.454138
1011.564173
1011.660026
1011.454358
1011.564249
1011.659552
1011.454138
1011.564173
1011.660026
1011.454138
1011.454358
1011.454138
1011.564267
1011.564295
1011.564173
1011.660111
1011.659593
1011.660026
1011.454138
1011.454358
1011.454138
1011.564267
1011.564295
1011.564173
1011.660111
1011.659593
1011.660026
)
;
    }
    procBoundary0to1
    {
        type            processor;
        value           nonuniform List<scalar> 9(1011.69275 1011.692749 1011.69275 1011.692756 1011.692755 1011.692756 1011.692764 1011.692763 1011.692764);
    }
}


// ************************************************************************* //
