/*--------------------------------*- C++ -*----------------------------------*\
  =========                 |
  \\      /  F ield         | OpenFOAM: The Open Source CFD Toolbox
   \\    /   O peration     | Website:  https://openfoam.org
    \\  /    A nd           | Version:  7
     \\/     M anipulation  |
\*---------------------------------------------------------------------------*/
FoamFile
{
    version     2.0;
    format      ascii;
    class       volScalarField;
    location    "0.065";
    object      muavg;
}
// * * * * * * * * * * * * * * * * * * * * * * * * * * * * * * * * * * * * * //

dimensions      [1 -1 -1 0 0 0 0];

internalField   nonuniform List<scalar> 
27
(
1.861159751e-05
1.861159747e-05
1.861159751e-05
1.861159843e-05
1.86115984e-05
1.861159843e-05
1.861159943e-05
1.861159939e-05
1.861159943e-05
1.862494773e-05
1.862494759e-05
1.862494773e-05
1.862494932e-05
1.862494917e-05
1.862494932e-05
1.862495118e-05
1.862495104e-05
1.862495118e-05
1.864754231e-05
1.864754195e-05
1.864754231e-05
1.864754534e-05
1.864754498e-05
1.864754534e-05
1.864754908e-05
1.864754872e-05
1.864754908e-05
)
;

boundaryField
{
    inlet
    {
        type            calculated;
        value           uniform 1.835366622e-05;
    }
    outlet
    {
        type            calculated;
        value           nonuniform 0();
    }
    walls
    {
        type            calculated;
        value           nonuniform List<scalar> 
36
(
1.846097058e-05
1.856071539e-05
1.864578317e-05
1.846117264e-05
1.856078452e-05
1.864537061e-05
1.846097058e-05
1.856071536e-05
1.86457831e-05
1.846097037e-05
1.856063112e-05
1.864570834e-05
1.846117242e-05
1.856069901e-05
1.864529082e-05
1.846097037e-05
1.856063111e-05
1.86457083e-05
1.846097058e-05
1.846117251e-05
1.846097037e-05
1.856071536e-05
1.856074069e-05
1.856063111e-05
1.86457831e-05
1.864532724e-05
1.86457083e-05
1.846097058e-05
1.846117251e-05
1.846097037e-05
1.856071539e-05
1.85607407e-05
1.856063112e-05
1.864578317e-05
1.864532726e-05
1.864570834e-05
)
;
    }
    procBoundary0to1
    {
        type            processor;
        value           nonuniform List<scalar> 9(1.867293942e-05 1.867293876e-05 1.867293942e-05 1.867294468e-05 1.867294402e-05 1.867294468e-05 1.867295124e-05 1.867295057e-05 1.867295124e-05);
    }
}


// ************************************************************************* //
