/*--------------------------------*- C++ -*----------------------------------*\
  =========                 |
  \\      /  F ield         | OpenFOAM: The Open Source CFD Toolbox
   \\    /   O peration     | Website:  https://openfoam.org
    \\  /    A nd           | Version:  7
     \\/     M anipulation  |
\*---------------------------------------------------------------------------*/
FoamFile
{
    version     2.0;
    format      ascii;
    class       volScalarField;
    location    "0.065";
    object      p;
}
// * * * * * * * * * * * * * * * * * * * * * * * * * * * * * * * * * * * * * //

dimensions      [1 -1 -2 0 0 0 0];

internalField   nonuniform List<scalar> 
27
(
101329.141
101329.1343
101329.141
101329.0739
101329.0672
101329.0739
101329.0212
101329.0143
101329.0212
101327.6092
101327.6047
101327.6092
101327.5424
101327.5379
101327.5424
101327.4857
101327.481
101327.4857
101326.442
101326.4376
101326.442
101326.3762
101326.3717
101326.3762
101326.3204
101326.3158
101326.3204
)
;

boundaryField
{
    inlet
    {
        type            zeroGradient;
    }
    outlet
    {
        type            totalPressure;
        rho             rho;
        psi             none;
        gamma           1;
        p0              nonuniform 0();
        value           nonuniform 0();
    }
    walls
    {
        type            zeroGradient;
    }
    procBoundary0to1
    {
        type            processor;
        value           nonuniform List<scalar> 9(101325.8565 101325.8532 101325.8565 101325.7963 101325.7928 101325.7963 101325.7435 101325.7398 101325.7435);
    }
}


// ************************************************************************* //
