/*--------------------------------*- C++ -*----------------------------------*\
  =========                 |
  \\      /  F ield         | OpenFOAM: The Open Source CFD Toolbox
   \\    /   O peration     | Website:  https://openfoam.org
    \\  /    A nd           | Version:  7
     \\/     M anipulation  |
\*---------------------------------------------------------------------------*/
FoamFile
{
    version     2.0;
    format      ascii;
    class       volScalarField;
    location    "0.065";
    object      pDyn;
}
// * * * * * * * * * * * * * * * * * * * * * * * * * * * * * * * * * * * * * //

dimensions      [1 -1 -2 0 0 0 0];

internalField   nonuniform List<scalar> 
27
(
1.71815027
1.732291195
1.718150308
1.733056608
1.747587647
1.733056626
1.719700419
1.73388218
1.719700436
1.891730384
1.916748594
1.891730639
1.917856865
1.943063814
1.917856999
1.893996858
1.919139521
1.893996972
1.833638908
1.872091843
1.833639464
1.870304548
1.909073607
1.870304773
1.830616634
1.869278239
1.83061711
)
;

boundaryField
{
    inlet
    {
        type            calculated;
        value           nonuniform List<scalar> 9(2.217813194 2.222724454 2.217810571 2.222725779 2.228226291 2.222723147 2.217813194 2.222724454 2.217810571);
    }
    outlet
    {
        type            calculated;
        value           nonuniform 0();
    }
    walls
    {
        type            calculated;
        value           uniform 0;
    }
    procBoundary0to1
    {
        type            processor;
        value           nonuniform List<scalar> 9(1.585251105 1.636527811 1.58525104 1.627213865 1.679202819 1.627214378 1.569334015 1.620840121 1.56933432);
    }
}


// ************************************************************************* //
