/*--------------------------------*- C++ -*----------------------------------*\
  =========                 |
  \\      /  F ield         | OpenFOAM: The Open Source CFD Toolbox
   \\    /   O peration     | Website:  https://openfoam.org
    \\  /    A nd           | Version:  7
     \\/     M anipulation  |
\*---------------------------------------------------------------------------*/
FoamFile
{
    version     2.0;
    format      ascii;
    class       surfaceScalarField;
    location    "0.065";
    object      phi;
}
// * * * * * * * * * * * * * * * * * * * * * * * * * * * * * * * * * * * * * //

dimensions      [0 3 -1 0 0 0 0];

internalField   nonuniform List<scalar> 
54
(
3.574250241e-08
4.935838024e-08
3.061504085e-05
-3.574134993e-08
4.869651012e-08
3.075523227e-05
4.935899752e-08
3.061504068e-05
3.522339986e-08
-2.252989296e-08
3.076882007e-05
-3.52215028e-08
-2.199354866e-08
3.091041423e-05
-2.253021621e-08
3.076882038e-05
3.597138711e-08
3.064108548e-05
-3.596981686e-08
3.078182287e-05
3.064108502e-05
4.047594484e-08
2.679308352e-08
2.902983693e-05
-4.047283774e-08
2.656734329e-08
2.927398388e-05
2.67935298e-08
2.902983919e-05
4.043358083e-08
-5.476752009e-08
2.927405406e-05
-4.04303375e-08
-5.466493238e-08
2.951815109e-05
-5.476787703e-08
2.927405345e-05
4.078681345e-08
2.902719367e-05
-4.078344159e-08
2.92726347e-05
2.90271941e-05
5.143451712e-08
1.130211444e-08
-5.143243313e-08
1.172997833e-08
1.130153134e-08
5.183165031e-08
-8.929428676e-08
-5.182849593e-08
-8.927623182e-08
-8.92949375e-08
5.186840594e-08
-5.186723388e-08
)
;

boundaryField
{
    inlet
    {
        type            calculated;
        value           nonuniform List<scalar> 9(-3.102855299e-05 -3.106290004e-05 -3.102855299e-05 -3.106290004e-05 -3.11013218e-05 -3.106290004e-05 -3.102855299e-05 -3.106290004e-05 -3.102855299e-05);
    }
    outlet
    {
        type            calculated;
        value           nonuniform 0();
    }
    walls
    {
        type            calculated;
        value           uniform 0;
    }
    procBoundary0to1
    {
        type            processor;
        value           nonuniform List<scalar> 9(2.700167798e-05 2.736588719e-05 2.700167733e-05 2.73252548e-05 2.76892215e-05 2.732525714e-05 2.692387512e-05 2.729098925e-05 2.692387803e-05);
    }
}


// ************************************************************************* //
