/*--------------------------------*- C++ -*----------------------------------*\
  =========                 |
  \\      /  F ield         | OpenFOAM: The Open Source CFD Toolbox
   \\    /   O peration     | Website:  https://openfoam.org
    \\  /    A nd           | Version:  7
     \\/     M anipulation  |
\*---------------------------------------------------------------------------*/
FoamFile
{
    version     2.0;
    format      ascii;
    class       surfaceScalarField;
    location    "0.065";
    object      rhoPhi;
}
// * * * * * * * * * * * * * * * * * * * * * * * * * * * * * * * * * * * * * //

dimensions      [1 0 -1 0 0 0 0];

internalField   nonuniform List<scalar> 
54
(
4.187188231e-08
5.782269123e-08
3.575328064e-05
-4.18705322e-08
5.704654985e-08
3.591669392e-05
5.782341437e-08
3.575328045e-05
4.126317964e-08
-2.639345691e-08
3.59325896e-05
-4.126095729e-08
-2.576478957e-08
3.609753583e-05
-2.639383559e-08
3.593258997e-05
4.21399685e-08
3.578374784e-05
-4.213812897e-08
3.594780007e-05
3.578374731e-05
4.712090263e-08
3.119175175e-08
3.370585798e-05
-4.711728545e-08
3.092875264e-08
3.398969638e-05
3.119227132e-08
3.370586065e-05
4.707138149e-08
-6.375893081e-08
3.398984986e-05
-4.706760572e-08
-6.363909444e-08
3.427345623e-05
-6.375934637e-08
3.398984916e-05
4.748300129e-08
3.370291626e-05
-4.747907586e-08
3.398826484e-05
3.370291679e-05
5.956089781e-08
1.308780232e-08
-5.955848462e-08
1.358357549e-08
1.308712711e-08
6.00222657e-08
-1.034025997e-07
-6.001861287e-08
-1.033840564e-07
-1.034033533e-07
6.006355796e-08
-6.006220076e-08
)
;

boundaryField
{
    inlet
    {
        type            calculated;
        value           nonuniform List<scalar> 9(-3.659598126e-05 -3.663646688e-05 -3.659593796e-05 -3.663648872e-05 -3.668178018e-05 -3.663644535e-05 -3.659598126e-05 -3.663646688e-05 -3.659593796e-05);
    }
    outlet
    {
        type            calculated;
        value           nonuniform 0();
    }
    walls
    {
        type            calculated;
        value           uniform 0;
    }
    procBoundary0to1
    {
        type            processor;
        value           nonuniform List<scalar> 9(3.120105124e-05 3.162348716e-05 3.120105057e-05 3.157649811e-05 3.199846585e-05 3.157650086e-05 3.111106408e-05 3.153687269e-05 3.11110675e-05);
    }
}


// ************************************************************************* //
