/*--------------------------------*- C++ -*----------------------------------*\
  =========                 |
  \\      /  F ield         | OpenFOAM: The Open Source CFD Toolbox
   \\    /   O peration     | Website:  https://openfoam.org
    \\  /    A nd           | Version:  7
     \\/     M anipulation  |
\*---------------------------------------------------------------------------*/
FoamFile
{
    version     2.0;
    format      ascii;
    class       volScalarField::Internal;
    location    "0.065";
    object      steelCloud:UCoeff;
}
// * * * * * * * * * * * * * * * * * * * * * * * * * * * * * * * * * * * * * //

dimensions      [1 0 0 0 0 0 0];

value           nonuniform List<scalar> 
27
(
3.492837136e-08
3.499534599e-08
3.492837136e-08
3.499534599e-08
3.507009077e-08
3.499534599e-08
3.492837136e-08
3.499534599e-08
3.492837136e-08
3.24107724e-08
3.248012562e-08
3.24107724e-08
3.248012562e-08
3.256017327e-08
3.248012562e-08
3.24107724e-08
3.248012562e-08
3.24107724e-08
2.770981086e-08
2.775735304e-08
2.770981086e-08
2.775735304e-08
2.781073572e-08
2.775735304e-08
2.770981086e-08
2.775735304e-08
2.770981086e-08
)
;


// ************************************************************************* //
