/*--------------------------------*- C++ -*----------------------------------*\
  =========                 |
  \\      /  F ield         | OpenFOAM: The Open Source CFD Toolbox
   \\    /   O peration     | Website:  https://openfoam.org
    \\  /    A nd           | Version:  7
     \\/     M anipulation  |
\*---------------------------------------------------------------------------*/
FoamFile
{
    version     2.0;
    format      ascii;
    class       volVectorField::Internal;
    location    "0.065";
    object      steelCloud:UTrans;
}
// * * * * * * * * * * * * * * * * * * * * * * * * * * * * * * * * * * * * * //

dimensions      [1 1 -1 0 0 0 0];

value           nonuniform List<vector> 
27
(
(-6.371245398e-08 -1.303320232e-15 -2.921747276e-10)
(-6.383462167e-08 -1.30581933e-15 -2.927349683e-10)
(-6.371245398e-08 -1.303320232e-15 -2.921747276e-10)
(-6.383462167e-08 -1.30581933e-15 -2.927349683e-10)
(-6.397096278e-08 -1.308608362e-15 -2.93360206e-10)
(-6.383462167e-08 -1.30581933e-15 -2.927349683e-10)
(-6.371245398e-08 -1.303320232e-15 -2.921747276e-10)
(-6.383462167e-08 -1.30581933e-15 -2.927349683e-10)
(-6.371245398e-08 -1.303320232e-15 -2.921747276e-10)
(-5.91201297e-08 -1.20937833e-15 -2.711150915e-10)
(-5.924663614e-08 -1.211966182e-15 -2.71695229e-10)
(-5.91201297e-08 -1.20937833e-15 -2.711150915e-10)
(-5.924663614e-08 -1.211966182e-15 -2.71695229e-10)
(-5.939265016e-08 -1.214953086e-15 -2.723648251e-10)
(-5.924663614e-08 -1.211966182e-15 -2.71695229e-10)
(-5.91201297e-08 -1.20937833e-15 -2.711150915e-10)
(-5.924663614e-08 -1.211966182e-15 -2.71695229e-10)
(-5.91201297e-08 -1.20937833e-15 -2.711150915e-10)
(-5.0545158e-08 -1.033966249e-15 -2.317916961e-10)
(-5.063187916e-08 -1.035740242e-15 -2.32189385e-10)
(-5.0545158e-08 -1.033966249e-15 -2.317916961e-10)
(-5.063187916e-08 -1.035740242e-15 -2.32189385e-10)
(-5.072925393e-08 -1.037732168e-15 -2.326359294e-10)
(-5.063187917e-08 -1.035740242e-15 -2.32189385e-10)
(-5.0545158e-08 -1.033966249e-15 -2.317916961e-10)
(-5.063187917e-08 -1.035740242e-15 -2.32189385e-10)
(-5.0545158e-08 -1.033966249e-15 -2.317916961e-10)
)
;


// ************************************************************************* //
