/*--------------------------------*- C++ -*----------------------------------*\
  =========                 |
  \\      /  F ield         | OpenFOAM: The Open Source CFD Toolbox
   \\    /   O peration     | Website:  https://openfoam.org
    \\  /    A nd           | Version:  7
     \\/     M anipulation  |
\*---------------------------------------------------------------------------*/
FoamFile
{
    version     2.0;
    format      ascii;
    class       volScalarField;
    location    "0.065";
    object      T;
}
// * * * * * * * * * * * * * * * * * * * * * * * * * * * * * * * * * * * * * //

dimensions      [0 0 0 1 0 0 0];

internalField   nonuniform List<scalar> 
27
(
300.0183649
300.0221698
300.0183649
300.0221675
300.0264143
300.0221675
300.0183609
300.0221657
300.0183609
301.9006366
301.9019273
301.9006364
301.9010988
301.9036604
301.9010987
301.8990429
301.9003098
301.8990428
303.5118291
303.5039595
303.5118284
303.503136
303.4971916
303.5031358
303.5104044
303.5024397
303.510404
)
;

boundaryField
{
    inlet
    {
        type            fixedValue;
        value           uniform 298;
    }
    outlet
    {
        type            zeroGradient;
    }
    walls
    {
        type            zeroGradient;
    }
    procBoundary0to1
    {
        type            processor;
        value           nonuniform List<scalar> 9(304.8035529 304.7808686 304.8035521 304.7820203 304.7617355 304.7820197 304.8059356 304.7829292 304.8059349);
    }
}


// ************************************************************************* //
