/*--------------------------------*- C++ -*----------------------------------*\
  =========                 |
  \\      /  F ield         | OpenFOAM: The Open Source CFD Toolbox
   \\    /   O peration     | Website:  https://openfoam.org
    \\  /    A nd           | Version:  7
     \\/     M anipulation  |
\*---------------------------------------------------------------------------*/
FoamFile
{
    version     2.0;
    format      ascii;
    class       volScalarField;
    location    "0.065";
    object      Tavg;
}
// * * * * * * * * * * * * * * * * * * * * * * * * * * * * * * * * * * * * * //

dimensions      [0 0 0 1 0 0 0];

internalField   nonuniform List<scalar> 
27
(
302.8654955
302.8654948
302.8654955
302.8655132
302.8655125
302.8655132
302.8655321
302.8655314
302.8655321
303.1181101
303.1181074
303.1181101
303.1181402
303.1181376
303.1181402
303.1181757
303.118173
303.1181757
303.5457166
303.5457098
303.5457166
303.5457743
303.5457674
303.5457743
303.5458454
303.5458385
303.5458454
)
;

boundaryField
{
    inlet
    {
        type            fixedValue;
        value           uniform 298;
    }
    outlet
    {
        type            zeroGradient;
    }
    walls
    {
        type            zeroGradient;
    }
    procBoundary0to1
    {
        type            processor;
        value           nonuniform List<scalar> 9(304.026463 304.0264504 304.026463 304.026563 304.0265503 304.026563 304.0266877 304.0266749 304.0266877);
    }
}


// ************************************************************************* //
