/*--------------------------------*- C++ -*----------------------------------*\
  =========                 |
  \\      /  F ield         | OpenFOAM: The Open Source CFD Toolbox
   \\    /   O peration     | Website:  https://openfoam.org
    \\  /    A nd           | Version:  7
     \\/     M anipulation  |
\*---------------------------------------------------------------------------*/
FoamFile
{
    version     2.0;
    format      ascii;
    class       volVectorField;
    location    "0.065";
    object      U;
}
// * * * * * * * * * * * * * * * * * * * * * * * * * * * * * * * * * * * * * //

dimensions      [0 1 -1 0 0 0 0];

internalField   nonuniform List<vector> 
27
(
(1.712701202 0.001659428073 -0.007630989705)
(1.719747212 2.568026541e-08 -0.007675550937)
(1.712701199 -0.001659372586 -0.007630966762)
(1.720140355 0.001636073933 0.003479822061)
(1.7273505 4.930157126e-08 0.003500883037)
(1.720140351 -0.00163599483 0.003479831391)
(1.713455336 0.001653438524 -0.01113122738)
(1.720518731 3.895993107e-08 -0.01113573914)
(1.713455323 -0.001653369923 -0.01113124152)
(1.802694958 0.002976711022 -0.01507959752)
(1.814585801 6.872327522e-08 -0.01513526189)
(1.802694988 -0.002976488509 -0.01507959863)
(1.815149923 0.002955229638 0.008239751609)
(1.827052829 6.500290461e-08 0.008300571699)
(1.815149947 -0.002955007578 0.008239744857)
(1.803706586 0.002948061603 -0.02139445841)
(1.815649631 7.685540162e-08 -0.0214375449)
(1.803706569 -0.002947829743 -0.021394454)
(1.779431621 0.004180116458 -0.02278523954)
(1.797984233 -6.592744489e-08 -0.02283081888)
(1.779431765 -0.004179751667 -0.0227851945)
(1.797213096 0.004169994974 0.013324889)
(1.815739325 -1.499109415e-08 0.01345854946)
(1.797213116 -0.004169575802 0.013324839)
(1.777823168 0.004111754872 -0.03172919081)
(1.796491421 -9.465693542e-08 -0.03182704932)
(1.777823282 -0.004111419354 -0.03172927315)
)
;

boundaryField
{
    inlet
    {
        type            interstitialInletVelocity;
        inletVelocity   uniform (1.23 0 0);
        value           nonuniform List<vector> 9((1.939284562 0 0) (1.941431252 0 0) (1.939284562 0 0) (1.941431252 0 0) (1.943832612 0 0) (1.941431252 0 0) (1.939284562 0 0) (1.941431252 0 0) (1.939284562 0 0));
    }
    outlet
    {
        type            pressureInletOutletVelocity;
        phi             alphaRhoPhi;
        value           nonuniform 0();
    }
    walls
    {
        type            noSlip;
    }
    procBoundary0to1
    {
        type            processor;
        value           nonuniform List<vector> 9((1.657855295 0.005061266026 -0.03189494778) (1.68442347 -2.881165137e-07 -0.03192038679) (1.657855298 -0.005060660678 -0.03189492168) (1.679833467 0.005044364704 0.01698761047) (1.706423485 -2.412233186e-07 0.01724347911) (1.679833601 -0.005043710896 0.01698758484) (1.649270806 0.004931247225 -0.04274872163) (1.676091167 -2.744556575e-07 -0.04287723896) (1.649270948 -0.004930628824 -0.0427487648));
    }
}


// ************************************************************************* //
