/*--------------------------------*- C++ -*----------------------------------*\
  =========                 |
  \\      /  F ield         | OpenFOAM: The Open Source CFD Toolbox
   \\    /   O peration     | Website:  https://openfoam.org
    \\  /    A nd           | Version:  7
     \\/     M anipulation  |
\*---------------------------------------------------------------------------*/
FoamFile
{
    version     2.0;
    format      ascii;
    class       volVectorField;
    location    "0.065";
    object      Uavg;
}
// * * * * * * * * * * * * * * * * * * * * * * * * * * * * * * * * * * * * * //

dimensions      [0 1 -1 0 0 0 0];

internalField   nonuniform List<vector> 
27
(
(1.247370761 5.107000876e-05 -0.01021018085)
(1.247374912 7.060003914e-08 -0.01021018564)
(1.247370761 -5.092870727e-05 -0.01021018083)
(1.247337654 5.103631021e-05 -0.01025660335)
(1.247341809 7.074783249e-08 -0.0102566053)
(1.247337654 -5.089471348e-05 -0.0102566034)
(1.247296239 5.100608407e-05 -0.01031989101)
(1.247300394 7.088477489e-08 -0.01031989251)
(1.247296238 -5.086421368e-05 -0.01031989112)
(1.219662903 5.362520818e-05 -0.01124270371)
(1.219667379 6.91091893e-08 -0.01124270338)
(1.219662902 -5.348680298e-05 -0.01124270364)
(1.219600862 5.357463916e-05 -0.01129157927)
(1.219605343 6.933268211e-08 -0.01129157682)
(1.219600861 -5.34357875e-05 -0.01129157932)
(1.219529906 5.35257623e-05 -0.01135870541)
(1.21953439 6.953343704e-08 -0.01135870362)
(1.219529905 -5.338650933e-05 -0.01135870557)
(1.182728846 5.987294766e-05 -0.01320140567)
(1.182734472 6.663716816e-08 -0.01320139113)
(1.182728843 -5.973924432e-05 -0.0132014055)
(1.182604831 5.978127191e-05 -0.01325595685)
(1.182610466 6.703384859e-08 -0.01325594152)
(1.182604827 -5.964677763e-05 -0.01325595691)
(1.182469746 5.968771402e-05 -0.01333250177)
(1.18247539 6.737273048e-08 -0.01333248945)
(1.182469743 -5.955254237e-05 -0.01333250206)
)
;

boundaryField
{
    inlet
    {
        type            interstitialInletVelocity;
        inletVelocity   uniform (1.23 0 0);
        value           uniform (1.23 0 0);
    }
    outlet
    {
        type            pressureInletOutletVelocity;
        phi             alphaRhoPhi;
        value           nonuniform 0();
    }
    walls
    {
        type            noSlip;
    }
    procBoundary0to1
    {
        type            processor;
        value           nonuniform List<vector> 9((1.159959034 7.15741528e-05 -0.01576307982) (1.159968117 6.435229098e-08 -0.01576303742) (1.159959027 -7.144450218e-05 -0.01576307948) (1.159742053 7.140857095e-05 -0.01582563087) (1.159751159 6.501715347e-08 -0.01582558795) (1.159742046 -7.127759853e-05 -0.01582563095) (1.159507395 7.123487387e-05 -0.01592180297) (1.159516524 6.555527735e-08 -0.01592176925) (1.159507389 -7.110282639e-05 -0.01592180348));
    }
}


// ************************************************************************* //
