/*--------------------------------*- C++ -*----------------------------------*\
  =========                 |
  \\      /  F ield         | OpenFOAM: The Open Source CFD Toolbox
   \\    /   O peration     | Website:  https://openfoam.org
    \\  /    A nd           | Version:  7
     \\/     M anipulation  |
\*---------------------------------------------------------------------------*/
FoamFile
{
    version     2.0;
    format      ascii;
    class       volScalarField;
    location    "0.015";
    object      cpavg;
}
// * * * * * * * * * * * * * * * * * * * * * * * * * * * * * * * * * * * * * //

dimensions      [0 2 -2 -1 0 0 0];

internalField   nonuniform List<scalar> 
27
(
1012.964703
1012.964702
1012.964703
1012.964701
1012.9647
1012.964701
1012.964702
1012.9647
1012.964702
1013.081583
1013.081581
1013.081583
1013.08158
1013.081579
1013.08158
1013.081581
1013.08158
1013.081581
1013.147784
1013.147782
1013.147784
1013.147782
1013.14778
1013.147782
1013.147782
1013.147781
1013.147782
)
;

boundaryField
{
    inlet
    {
        type            calculated;
        value           nonuniform 0();
    }
    outlet
    {
        type            calculated;
        value           nonuniform List<scalar> 9(1013.683099 1013.680482 1013.683395 1013.680266 1013.677619 1013.680559 1013.683099 1013.680482 1013.683395);
    }
    walls
    {
        type            calculated;
        value           nonuniform List<scalar> 
36
(
1013.21775
1013.490634
1013.683099
1013.214939
1013.487697
1013.680266
1013.217749
1013.490633
1013.683099
1013.21737
1013.49032
1013.683395
1013.214548
1013.487373
1013.680559
1013.217371
1013.490321
1013.683395
1013.217749
1013.214744
1013.217371
1013.490633
1013.48754
1013.490321
1013.683099
1013.680482
1013.683395
1013.21775
1013.214744
1013.21737
1013.490634
1013.48754
1013.49032
1013.683099
1013.680482
1013.683395
)
;
    }
    procBoundary1to0
    {
        type            processor;
        value           nonuniform List<scalar> 9(1012.825746 1012.825745 1012.825746 1012.825745 1012.825744 1012.825745 1012.825745 1012.825744 1012.825745);
    }
}


// ************************************************************************* //
