/*--------------------------------*- C++ -*----------------------------------*\
  =========                 |
  \\      /  F ield         | OpenFOAM: The Open Source CFD Toolbox
   \\    /   O peration     | Website:  https://openfoam.org
    \\  /    A nd           | Version:  7
     \\/     M anipulation  |
\*---------------------------------------------------------------------------*/
FoamFile
{
    version     2.0;
    format      ascii;
    class       volScalarField;
    location    "0.015";
    object      muavg;
}
// * * * * * * * * * * * * * * * * * * * * * * * * * * * * * * * * * * * * * //

dimensions      [1 -1 -1 0 0 0 0];

internalField   nonuniform List<scalar> 
27
(
1.965448091e-05
1.965448009e-05
1.965448091e-05
1.965447949e-05
1.965447867e-05
1.965447949e-05
1.96544797e-05
1.965447888e-05
1.96544797e-05
1.97399331e-05
1.973993218e-05
1.97399331e-05
1.973993163e-05
1.973993072e-05
1.973993163e-05
1.973993198e-05
1.973993106e-05
1.973993198e-05
1.978812871e-05
1.978812776e-05
1.978812871e-05
1.978812737e-05
1.978812642e-05
1.978812737e-05
1.978812791e-05
1.978812696e-05
1.978812791e-05
)
;

boundaryField
{
    inlet
    {
        type            calculated;
        value           nonuniform 0();
    }
    outlet
    {
        type            calculated;
        value           nonuniform List<scalar> 9(2.016550096e-05 2.016379279e-05 2.016569383e-05 2.016365169e-05 2.0161923e-05 2.016384275e-05 2.016550068e-05 2.016379275e-05 2.016569405e-05);
    }
    walls
    {
        type            calculated;
        value           nonuniform List<scalar> 
36
(
1.985314723e-05
2.003845801e-05
2.016550096e-05
1.985120504e-05
2.003649676e-05
2.016365169e-05
1.985314619e-05
2.00384575e-05
2.016550068e-05
1.985288455e-05
2.003824847e-05
2.016569383e-05
1.985093454e-05
2.003628019e-05
2.016384275e-05
1.985288532e-05
2.003824888e-05
2.016569405e-05
1.985314619e-05
1.985107003e-05
1.985288532e-05
2.00384575e-05
2.003639164e-05
2.003824888e-05
2.016550068e-05
2.016379275e-05
2.016569405e-05
1.985314723e-05
1.985107001e-05
1.985288455e-05
2.003845801e-05
2.003639165e-05
2.003824847e-05
2.016550096e-05
2.016379279e-05
2.016569383e-05
)
;
    }
    procBoundary1to0
    {
        type            processor;
        value           nonuniform List<scalar> 9(1.955228234e-05 1.95522817e-05 1.955228234e-05 1.955228128e-05 1.955228065e-05 1.955228128e-05 1.955228149e-05 1.955228085e-05 1.955228149e-05);
    }
}


// ************************************************************************* //
