/*--------------------------------*- C++ -*----------------------------------*\
  =========                 |
  \\      /  F ield         | OpenFOAM: The Open Source CFD Toolbox
   \\    /   O peration     | Website:  https://openfoam.org
    \\  /    A nd           | Version:  7
     \\/     M anipulation  |
\*---------------------------------------------------------------------------*/
FoamFile
{
    version     2.0;
    format      ascii;
    class       volScalarField;
    location    "0.015";
    object      pDyn;
}
// * * * * * * * * * * * * * * * * * * * * * * * * * * * * * * * * * * * * * //

dimensions      [1 -1 -2 0 0 0 0];

internalField   nonuniform List<scalar> 
27
(
4.549294563
4.622633567
4.549374479
4.60919618
4.683341165
4.609197306
4.524205825
4.597418932
4.524172304
4.638859331
4.724163557
4.63880463
4.697991903
4.784645641
4.69798146
4.589542588
4.674578492
4.589546012
4.951500967
5.047527878
4.95153671
4.941649729
5.038205435
4.941687799
4.751277188
4.845168538
4.75129388
)
;

boundaryField
{
    inlet
    {
        type            calculated;
        value           nonuniform 0();
    }
    outlet
    {
        type            calculated;
        value           nonuniform List<scalar> 9(4.95143802 4.941588629 4.751220073 5.047463742 5.038143179 4.845110336 4.951473766 4.941626702 4.751236767);
    }
    walls
    {
        type            calculated;
        value           uniform 0;
    }
    procBoundary1to0
    {
        type            processor;
        value           nonuniform List<scalar> 9(4.280455393 4.33769878 4.280479152 4.328210497 4.385621875 4.328199351 4.262540505 4.319769158 4.262514783);
    }
}


// ************************************************************************* //
