/*--------------------------------*- C++ -*----------------------------------*\
  =========                 |
  \\      /  F ield         | OpenFOAM: The Open Source CFD Toolbox
   \\    /   O peration     | Website:  https://openfoam.org
    \\  /    A nd           | Version:  7
     \\/     M anipulation  |
\*---------------------------------------------------------------------------*/
FoamFile
{
    version     2.0;
    format      ascii;
    class       surfaceScalarField;
    location    "0.015";
    object      phi;
}
// * * * * * * * * * * * * * * * * * * * * * * * * * * * * * * * * * * * * * //

dimensions      [0 3 -1 0 0 0 0];

internalField   nonuniform List<scalar> 
54
(
4.344066341e-08
-6.785525158e-09
2.4739554e-05
-4.42594364e-08
-6.172706684e-09
2.516654083e-05
-6.569992869e-09
2.473917476e-05
4.43106035e-08
-9.4178839e-08
2.507099348e-05
-4.481742778e-08
-9.484108127e-08
2.54997233e-05
-9.395249247e-08
2.507089066e-05
4.378156916e-08
2.455105747e-05
-4.417139332e-08
2.497891075e-05
2.455100365e-05
3.945062568e-08
-6.324634842e-08
2.343437252e-05
-3.90121e-08
-6.267720016e-08
2.395664665e-05
-6.337308813e-08
2.343456543e-05
3.973899366e-08
-1.358573581e-07
2.375837126e-05
-3.949230603e-08
-1.36155346e-07
2.428436335e-05
-1.359242536e-07
2.375845511e-05
3.920527969e-08
2.305756728e-05
-3.896084383e-08
2.358045814e-05
2.305768924e-05
2.703308964e-08
-2.412883735e-07
-2.725748057e-08
-2.403217194e-07
-2.413251541e-07
2.737866171e-08
-2.97176478e-07
-2.765745176e-08
-2.974649903e-07
-2.972353018e-07
2.662383011e-08
-2.692669627e-08
)
;

boundaryField
{
    inlet
    {
        type            calculated;
        value           nonuniform 0();
    }
    outlet
    {
        type            calculated;
        value           nonuniform List<scalar> 9(2.295339217e-05 2.308561132e-05 2.204456498e-05 2.354675276e-05 2.368587688e-05 2.26380783e-05 2.295339492e-05 2.308543688e-05 2.204432425e-05);
    }
    walls
    {
        type            calculated;
        value           uniform 0;
    }
    procBoundary1to0
    {
        type            processor;
        value           nonuniform List<scalar> 9(-2.672283258e-05 -2.704997449e-05 -2.672349658e-05 -2.70006434e-05 -2.732655761e-05 -2.700107133e-05 -2.662675139e-05 -2.695420327e-05 -2.6626867e-05);
    }
}


// ************************************************************************* //
