/*--------------------------------*- C++ -*----------------------------------*\
  =========                 |
  \\      /  F ield         | OpenFOAM: The Open Source CFD Toolbox
   \\    /   O peration     | Website:  https://openfoam.org
    \\  /    A nd           | Version:  7
     \\/     M anipulation  |
\*---------------------------------------------------------------------------*/
FoamFile
{
    version     2.0;
    format      ascii;
    class       surfaceScalarField;
    location    "0.015";
    object      rhoPhi;
}
// * * * * * * * * * * * * * * * * * * * * * * * * * * * * * * * * * * * * * //

dimensions      [1 0 -1 0 0 0 0];

internalField   nonuniform List<scalar> 
54
(
4.865500878e-08
-7.599933476e-09
2.753322961e-05
-4.95720622e-08
-6.91481489e-09
2.80144338e-05
-7.358532659e-09
2.753280858e-05
4.963726036e-08
-1.054800284e-07
2.790728165e-05
-5.020501059e-08
-1.062410051e-07
2.839049103e-05
-1.052265186e-07
2.790716732e-05
4.903472722e-08
2.732194007e-05
-4.947132385e-08
2.780406479e-05
2.732187947e-05
4.363442673e-08
-6.995250394e-08
2.57760528e-05
-4.31493963e-08
-6.933993884e-08
2.635760617e-05
-7.009268547e-08
2.577626671e-05
4.396257905e-08
-1.502575851e-07
2.613810583e-05
-4.368967314e-08
-1.506240257e-07
2.672390561e-05
-1.503315713e-07
2.61381986e-05
4.336017733e-08
2.535915667e-05
-4.308983622e-08
2.594125757e-05
2.53592901e-05
2.957675381e-08
-2.639831797e-07
-2.982225958e-08
-2.630023019e-07
-2.640234303e-07
2.996151604e-08
-3.251075349e-07
-3.026660693e-08
-3.255183587e-07
-3.251718847e-07
2.912535262e-08
-2.945667497e-08
)
;

boundaryField
{
    inlet
    {
        type            calculated;
        value           nonuniform 0();
    }
    outlet
    {
        type            calculated;
        value           nonuniform List<scalar> 9(2.510967444e-05 2.525997035e-05 2.411245613e-05 2.576631354e-05 2.592430929e-05 2.476893016e-05 2.510967907e-05 2.525978008e-05 2.411219205e-05);
    }
    walls
    {
        type            calculated;
        value           uniform 0;
    }
    procBoundary1to0
    {
        type            processor;
        value           nonuniform List<scalar> 9(-3.013817403e-05 -3.051158195e-05 -3.013892381e-05 -3.045537361e-05 -3.082736564e-05 -3.045585654e-05 -3.002871592e-05 -3.040246333e-05 -3.002884567e-05);
    }
}


// ************************************************************************* //
