/*--------------------------------*- C++ -*----------------------------------*\
  =========                 |
  \\      /  F ield         | OpenFOAM: The Open Source CFD Toolbox
   \\    /   O peration     | Website:  https://openfoam.org
    \\  /    A nd           | Version:  7
     \\/     M anipulation  |
\*---------------------------------------------------------------------------*/
FoamFile
{
    version     2.0;
    format      ascii;
    class       volScalarField::Internal;
    location    "0.015";
    object      steelCloud:UCoeff;
}
// * * * * * * * * * * * * * * * * * * * * * * * * * * * * * * * * * * * * * //

dimensions      [1 0 0 0 0 0 0];

value           nonuniform List<scalar> 
27
(
3.02432668e-08
3.027614277e-08
3.02432668e-08
3.027614277e-08
3.031188596e-08
3.027614277e-08
3.02432668e-08
3.027614277e-08
3.02432668e-08
2.394215092e-08
2.395615585e-08
2.394215092e-08
2.395615585e-08
2.397098326e-08
2.395615586e-08
2.394215092e-08
2.395615586e-08
2.394215092e-08
2.041773855e-08
2.042416408e-08
2.041773855e-08
2.042416408e-08
2.043083031e-08
2.042416408e-08
2.041773855e-08
2.042416408e-08
2.041773855e-08
)
;


// ************************************************************************* //
