/*--------------------------------*- C++ -*----------------------------------*\
  =========                 |
  \\      /  F ield         | OpenFOAM: The Open Source CFD Toolbox
   \\    /   O peration     | Website:  https://openfoam.org
    \\  /    A nd           | Version:  7
     \\/     M anipulation  |
\*---------------------------------------------------------------------------*/
FoamFile
{
    version     2.0;
    format      ascii;
    class       volScalarField::Internal;
    location    "0.015";
    object      steelCloud:hsTrans;
}
// * * * * * * * * * * * * * * * * * * * * * * * * * * * * * * * * * * * * * //

dimensions      [1 2 -2 0 0 0 0];

value           nonuniform List<scalar> 
27
(
5.473346293e-05
5.479296099e-05
5.473346292e-05
5.479296099e-05
5.485764807e-05
5.479296099e-05
5.473346292e-05
5.479296099e-05
5.473346293e-05
4.332987037e-05
4.335521612e-05
4.332987037e-05
4.335521612e-05
4.338205037e-05
4.335521612e-05
4.332987037e-05
4.335521612e-05
4.332987037e-05
3.695148223e-05
3.696311099e-05
3.695148224e-05
3.696311099e-05
3.697517536e-05
3.696311099e-05
3.695148224e-05
3.696311099e-05
3.695148224e-05
)
;


// ************************************************************************* //
