/*--------------------------------*- C++ -*----------------------------------*\
  =========                 |
  \\      /  F ield         | OpenFOAM: The Open Source CFD Toolbox
   \\    /   O peration     | Website:  https://openfoam.org
    \\  /    A nd           | Version:  7
     \\/     M anipulation  |
\*---------------------------------------------------------------------------*/
FoamFile
{
    version     2.0;
    format      ascii;
    class       volScalarField;
    location    "0.015";
    object      T;
}
// * * * * * * * * * * * * * * * * * * * * * * * * * * * * * * * * * * * * * //

dimensions      [0 0 0 1 0 0 0];

internalField   nonuniform List<scalar> 
27
(
313.8091648
313.7517193
313.8091593
313.7585006
313.7023493
313.7584987
313.8225262
313.7648225
313.8225317
317.7897595
317.7116397
317.7897328
317.7226003
317.645518
317.7225897
317.8108536
317.7323546
317.8108566
321.2744465
321.1804672
321.2744258
321.2025112
321.1091363
321.2025037
321.3146088
321.2200892
321.3146191
)
;

boundaryField
{
    inlet
    {
        type            fixedValue;
        value           nonuniform 0();
    }
    outlet
    {
        type            zeroGradient;
    }
    walls
    {
        type            zeroGradient;
    }
    procBoundary1to0
    {
        type            processor;
        value           nonuniform List<scalar> 9(309.4557907 309.4218688 309.4557674 309.4264107 309.3937182 309.4263965 309.4647469 309.4306802 309.4647455);
    }
}


// ************************************************************************* //
