/*--------------------------------*- C++ -*----------------------------------*\
  =========                 |
  \\      /  F ield         | OpenFOAM: The Open Source CFD Toolbox
   \\    /   O peration     | Website:  https://openfoam.org
    \\  /    A nd           | Version:  7
     \\/     M anipulation  |
\*---------------------------------------------------------------------------*/
FoamFile
{
    version     2.0;
    format      ascii;
    class       volScalarField;
    location    "0.015";
    object      Tavg;
}
// * * * * * * * * * * * * * * * * * * * * * * * * * * * * * * * * * * * * * //

dimensions      [0 0 0 1 0 0 0];

internalField   nonuniform List<scalar> 
27
(
322.9043166
322.9043006
322.9043166
322.9042889
322.9042729
322.9042889
322.9042929
322.904277
322.9042929
324.5594062
324.5593882
324.5594061
324.5593775
324.5593596
324.5593775
324.5593844
324.5593664
324.5593844
325.493412
325.4933934
325.493412
325.4933859
325.4933673
325.4933859
325.4933965
325.4933779
325.4933965
)
;

boundaryField
{
    inlet
    {
        type            fixedValue;
        value           nonuniform 0();
    }
    outlet
    {
        type            zeroGradient;
    }
    walls
    {
        type            zeroGradient;
    }
    procBoundary1to0
    {
        type            processor;
        value           nonuniform List<scalar> 9(320.9264216 320.9264092 320.9264216 320.9264009 320.9263885 320.9264009 320.9264049 320.9263925 320.9264049);
    }
}


// ************************************************************************* //
