/*--------------------------------*- C++ -*----------------------------------*\
  =========                 |
  \\      /  F ield         | OpenFOAM: The Open Source CFD Toolbox
   \\    /   O peration     | Website:  https://openfoam.org
    \\  /    A nd           | Version:  7
     \\/     M anipulation  |
\*---------------------------------------------------------------------------*/
FoamFile
{
    version     2.0;
    format      ascii;
    class       volVectorField;
    location    "0.015";
    object      U;
}
// * * * * * * * * * * * * * * * * * * * * * * * * * * * * * * * * * * * * * //

dimensions      [0 1 -1 0 0 0 0];

internalField   nonuniform List<vector> 
27
(
(1.646433546 0.004182915196 -0.02200331271)
(1.669958608 -2.814152962e-05 -0.02208816216)
(1.646414468 -0.004200810469 -0.02198768251)
(1.665591595 0.004240368098 0.01486927639)
(1.689105069 -1.27594579e-05 0.01505119644)
(1.665602313 -0.004242845185 0.01489006723)
(1.637800953 0.004124657194 -0.03050070333)
(1.661391978 -7.220008888e-06 -0.03076120792)
(1.63781749 -0.004121772451 -0.03049558271)
(1.512649967 0.004418621584 -0.02720973441)
(1.542394928 2.727565501e-05 -0.02743094156)
(1.512685086 -0.004381781441 -0.02721741442)
(1.534243861 0.00436846027 0.01423821407)
(1.564141524 1.918217648e-05 0.01449187551)
(1.534249955 -0.004339565918 0.01423024975)
(1.496753425 0.004309420036 -0.03619484619)
(1.52653681 1.938337768e-05 -0.03643062386)
(1.496746489 -0.004280462718 -0.03619509608)
(1.440289233 0.00406438459 -0.03820860632)
(1.476510069 -6.099726035e-06 -0.03837271704)
(1.440270698 -0.004061532874 -0.0382126293)
(1.452774235 0.004094703403 0.003989432534)
(1.48939073 -1.030641165e-05 0.004318674129)
(1.452759621 -0.004095881369 0.003982869628)
(1.394180852 0.003913390209 -0.04688093013)
(1.430428992 -1.266221051e-05 -0.04727328055)
(1.394173011 -0.003916999076 -0.04688349282)
)
;

boundaryField
{
    inlet
    {
        type            interstitialInletVelocity;
        inletVelocity   nonuniform 0();
        value           nonuniform 0();
    }
    outlet
    {
        type            pressureInletOutletVelocity;
        phi             alphaRhoPhi;
        value           nonuniform List<vector> 9((1.440289233 0.00406438459 -0.03820860632) (1.452774235 0.004094703403 0.003989432534) (1.394180852 0.003913390209 -0.04688093013) (1.476510069 -6.099726035e-06 -0.03837271704) (1.48939073 -1.030641165e-05 0.004318674129) (1.430428992 -1.266221051e-05 -0.04727328055) (1.440270698 -0.004061532874 -0.0382126293) (1.452759621 -0.004095881369 0.003982869628) (1.394173011 -0.003916999076 -0.04688349282));
    }
    walls
    {
        type            noSlip;
    }
    procBoundary1to0
    {
        type            processor;
        value           nonuniform List<vector> 9((1.787097275 0.003921838729 -0.01759841637) (1.804119276 4.660104147e-05 -0.01773663968) (1.787089699 -0.003865372559 -0.0176377652) (1.8022741 0.003885601624 0.01184067547) (1.819258313 6.456531839e-06 0.011921863) (1.802302556 -0.003868862023 0.01179204772) (1.783522834 0.003850066992 -0.02557177302) (1.800591328 -2.046606558e-06 -0.02571066368) (1.78354872 -0.003841862265 -0.02558062455));
    }
}


// ************************************************************************* //
