/*--------------------------------*- C++ -*----------------------------------*\
  =========                 |
  \\      /  F ield         | OpenFOAM: The Open Source CFD Toolbox
   \\    /   O peration     | Website:  https://openfoam.org
    \\  /    A nd           | Version:  7
     \\/     M anipulation  |
\*---------------------------------------------------------------------------*/
FoamFile
{
    version     2.0;
    format      ascii;
    class       volVectorField;
    location    "0.015";
    object      Uavg;
}
// * * * * * * * * * * * * * * * * * * * * * * * * * * * * * * * * * * * * * //

dimensions      [0 1 -1 0 0 0 0];

internalField   nonuniform List<vector> 
27
(
(1.887221622 2.659051892e-05 -0.01519313623)
(1.88722871 -3.157690024e-06 -0.01519320036)
(1.88722165 -3.290402177e-05 -0.01519316914)
(1.887031935 2.657858672e-05 -0.01521198081)
(1.887039029 -3.171576193e-06 -0.01521203945)
(1.887031968 -3.291954274e-05 -0.01521200735)
(1.886828298 2.656480766e-05 -0.01525379073)
(1.886835393 -3.183716113e-06 -0.01525385203)
(1.886828335 -3.292983725e-05 -0.01525381038)
(1.981531201 2.409953126e-05 -0.01706445635)
(1.981541298 -3.028142457e-06 -0.01706453651)
(1.981531241 -3.015367202e-05 -0.01706447362)
(1.981259097 2.40970513e-05 -0.01707713933)
(1.981269199 -3.03446189e-06 -0.01707721297)
(1.98125914 -3.016372487e-05 -0.01707715151)
(1.980967194 2.408970455e-05 -0.01712005582)
(1.980977294 -3.03957004e-06 -0.01712013743)
(1.980967239 -3.016655603e-05 -0.01712006278)
(2.046231319 2.266906271e-05 -0.01828767235)
(2.046243346 -2.949774804e-06 -0.01828776325)
(2.046231373 -2.856652863e-05 -0.0182876738)
(2.045898296 2.26766726e-05 -0.0182968296)
(2.045910327 -2.948333058e-06 -0.01829691227)
(2.045898352 -2.857140199e-05 -0.01829682688)
(2.045541767 2.268015707e-05 -0.01834062667)
(2.045553794 -2.946129288e-06 -0.01834071933)
(2.045541824 -2.857065369e-05 -0.0183406201)
)
;

boundaryField
{
    inlet
    {
        type            interstitialInletVelocity;
        inletVelocity   nonuniform 0();
        value           nonuniform 0();
    }
    outlet
    {
        type            pressureInletOutletVelocity;
        phi             alphaRhoPhi;
        value           nonuniform List<vector> 9((3.061933183 0.0003172242308 -0.05354989883) (3.059162477 0.0003235635261 -0.01506815455) (2.999368016 0.0003439841265 -0.05451987928) (3.091314118 -2.778676268e-06 -0.05396938814) (3.088735191 1.554903033e-06 -0.01496186847) (3.028695173 5.279105113e-06 -0.05493625019) (3.06194428 -0.0003199613752 -0.0535460856) (3.059174297 -0.0003220394988 -0.01506021525) (2.999373379 -0.0003387956522 -0.05451589771));
    }
    walls
    {
        type            noSlip;
    }
    procBoundary1to0
    {
        type            processor;
        value           nonuniform List<vector> 9((1.809041582 3.130808577e-05 -0.01339132744) (1.809046601 -3.304328672e-06 -0.0133913782) (1.809041604 -3.791350635e-05 -0.01339136411) (1.808922037 3.129413489e-05 -0.01341708469) (1.808927061 -3.319672278e-06 -0.01341712988) (1.808922069 -3.793014103e-05 -0.01341711369) (1.808792572 3.12814277e-05 -0.0134618868) (1.808797602 -3.333025013e-06 -0.01346193063) (1.808792613 -3.794412697e-05 -0.01346190801));
    }
}


// ************************************************************************* //
