/*--------------------------------*- C++ -*----------------------------------*\
  =========                 |
  \\      /  F ield         | OpenFOAM: The Open Source CFD Toolbox
   \\    /   O peration     | Website:  https://openfoam.org
    \\  /    A nd           | Version:  7
     \\/     M anipulation  |
\*---------------------------------------------------------------------------*/
FoamFile
{
    version     2.0;
    format      ascii;
    class       surfaceScalarField;
    location    "0.01";
    object      alphaRhoPhi;
}
// * * * * * * * * * * * * * * * * * * * * * * * * * * * * * * * * * * * * * //

dimensions      [1 0 -1 0 0 0 0];

internalField   nonuniform List<scalar> 
54
(
2.576741776e-08
-6.140638226e-09
3.935605529e-05
-2.540570655e-08
-6.710039381e-09
3.968790981e-05
-6.232334925e-09
3.93563163e-05
2.649540901e-08
-5.68791843e-08
3.961084644e-05
-2.631517255e-08
-5.837439275e-08
3.994395381e-05
-5.698479683e-08
3.961096181e-05
2.638695408e-08
3.920740858e-05
-2.621343621e-08
3.953986229e-05
3.920744515e-05
2.275153596e-08
-7.568411795e-08
4.174525403e-05
-2.297805497e-08
-7.669693224e-08
4.214677482e-05
-7.562015788e-08
4.174523278e-05
2.347612599e-08
-1.191967766e-07
4.196725813e-05
-2.366810405e-08
-1.209763296e-07
4.237201447e-05
-1.191860443e-07
4.19672393e-05
2.351429861e-08
4.140083715e-05
-2.366852942e-08
4.180237535e-05
4.14007266e-05
5.211711576e-09
-4.175842926e-07
-5.17274641e-09
-4.199180065e-07
-4.175161384e-07
5.787449404e-09
-4.268125304e-07
-5.676796865e-09
-4.290993185e-07
-4.267499281e-07
6.454733507e-09
-6.288058123e-09
)
;

boundaryField
{
    inlet
    {
        type            calculated;
        value           nonuniform 0();
    }
    outlet
    {
        type            calculated;
        value           nonuniform List<scalar> 9(4.41568804e-05 4.396947084e-05 4.29669523e-05 4.457575392e-05 4.439086416e-05 4.338482372e-05 4.415683069e-05 4.396956886e-05 4.296707214e-05);
    }
    walls
    {
        type            calculated;
        value           uniform 0;
    }
    procBoundary1to0
    {
        type            processor;
        value           nonuniform List<scalar> 9(-3.640510959e-05 -3.665720833e-05 -3.640492e-05 -3.661385251e-05 -3.686415606e-05 -3.661375373e-05 -3.632025504e-05 -3.657294629e-05 -3.632021968e-05);
    }
}


// ************************************************************************* //
