/*--------------------------------*- C++ -*----------------------------------*\
  =========                 |
  \\      /  F ield         | OpenFOAM: The Open Source CFD Toolbox
   \\    /   O peration     | Website:  https://openfoam.org
    \\  /    A nd           | Version:  7
     \\/     M anipulation  |
\*---------------------------------------------------------------------------*/
FoamFile
{
    version     2.0;
    format      ascii;
    class       volScalarField;
    location    "0.01";
    object      cpavg;
}
// * * * * * * * * * * * * * * * * * * * * * * * * * * * * * * * * * * * * * //

dimensions      [0 2 -2 -1 0 0 0];

internalField   nonuniform List<scalar> 
27
(
1013.379937
1013.379937
1013.379937
1013.379937
1013.379937
1013.379937
1013.379937
1013.379937
1013.379937
1013.477982
1013.477982
1013.477982
1013.477982
1013.477982
1013.477982
1013.477982
1013.477982
1013.477982
1013.532697
1013.532697
1013.532697
1013.532697
1013.532697
1013.532697
1013.532697
1013.532697
1013.532697
)
;

boundaryField
{
    inlet
    {
        type            calculated;
        value           nonuniform 0();
    }
    outlet
    {
        type            calculated;
        value           nonuniform List<scalar> 9(1013.925237 1013.925237 1013.925237 1013.925237 1013.925237 1013.925237 1013.925237 1013.925237 1013.925237);
    }
    walls
    {
        type            calculated;
        value           nonuniform List<scalar> 
36
(
1013.643201
1013.817997
1013.925237
1013.643201
1013.817996
1013.925237
1013.643201
1013.817997
1013.925237
1013.643201
1013.817997
1013.925237
1013.643201
1013.817996
1013.925237
1013.643201
1013.817997
1013.925237
1013.643201
1013.643201
1013.643201
1013.817997
1013.817996
1013.817997
1013.925237
1013.925237
1013.925237
1013.643201
1013.643201
1013.643201
1013.817997
1013.817996
1013.817997
1013.925237
1013.925237
1013.925237
)
;
    }
    procBoundary1to0
    {
        type            processor;
        value           nonuniform List<scalar> 9(1013.260942 1013.260942 1013.260942 1013.260942 1013.260942 1013.260942 1013.260942 1013.260942 1013.260942);
    }
}


// ************************************************************************* //
