/*--------------------------------*- C++ -*----------------------------------*\
  =========                 |
  \\      /  F ield         | OpenFOAM: The Open Source CFD Toolbox
   \\    /   O peration     | Website:  https://openfoam.org
    \\  /    A nd           | Version:  7
     \\/     M anipulation  |
\*---------------------------------------------------------------------------*/
FoamFile
{
    version     2.0;
    format      ascii;
    class       volScalarField;
    location    "0.01";
    object      muavg;
}
// * * * * * * * * * * * * * * * * * * * * * * * * * * * * * * * * * * * * * //

dimensions      [1 -1 -1 0 0 0 0];

internalField   nonuniform List<scalar> 
27
(
1.994981026e-05
1.994981026e-05
1.994981026e-05
1.994981026e-05
1.994981025e-05
1.994981025e-05
1.994981026e-05
1.994981025e-05
1.994981025e-05
2.001795379e-05
2.001795379e-05
2.001795379e-05
2.001795379e-05
2.001795379e-05
2.001795379e-05
2.001795379e-05
2.001795379e-05
2.001795379e-05
2.005585922e-05
2.005585922e-05
2.005585922e-05
2.005585922e-05
2.005585922e-05
2.005585922e-05
2.005585922e-05
2.005585922e-05
2.005585922e-05
)
;

boundaryField
{
    inlet
    {
        type            calculated;
        value           nonuniform 0();
    }
    outlet
    {
        type            calculated;
        value           nonuniform List<scalar> 9(2.032134026e-05 2.032134018e-05 2.032134025e-05 2.032134018e-05 2.03213401e-05 2.032134018e-05 2.032134025e-05 2.032134018e-05 2.032134025e-05);
    }
    walls
    {
        type            calculated;
        value           nonuniform List<scalar> 
36
(
2.013940239e-05
2.025285117e-05
2.032134026e-05
2.013940222e-05
2.025285105e-05
2.032134018e-05
2.013940238e-05
2.025285116e-05
2.032134025e-05
2.013940238e-05
2.025285116e-05
2.032134025e-05
2.013940221e-05
2.025285104e-05
2.032134018e-05
2.013940237e-05
2.025285116e-05
2.032134025e-05
2.013940238e-05
2.013940221e-05
2.013940237e-05
2.025285116e-05
2.025285104e-05
2.025285116e-05
2.032134025e-05
2.032134018e-05
2.032134025e-05
2.013940239e-05
2.013940222e-05
2.013940238e-05
2.025285117e-05
2.025285105e-05
2.025285116e-05
2.032134026e-05
2.032134018e-05
2.032134025e-05
)
;
    }
    procBoundary1to0
    {
        type            processor;
        value           nonuniform List<scalar> 9(1.986672758e-05 1.986672758e-05 1.986672758e-05 1.986672758e-05 1.986672758e-05 1.986672758e-05 1.986672758e-05 1.986672758e-05 1.986672758e-05);
    }
}


// ************************************************************************* //
