/*--------------------------------*- C++ -*----------------------------------*\
  =========                 |
  \\      /  F ield         | OpenFOAM: The Open Source CFD Toolbox
   \\    /   O peration     | Website:  https://openfoam.org
    \\  /    A nd           | Version:  7
     \\/     M anipulation  |
\*---------------------------------------------------------------------------*/
FoamFile
{
    version     2.0;
    format      ascii;
    class       volScalarField;
    location    "0.01";
    object      p;
}
// * * * * * * * * * * * * * * * * * * * * * * * * * * * * * * * * * * * * * //

dimensions      [1 -1 -2 0 0 0 0];

internalField   nonuniform List<scalar> 
27
(
101331.2301
101331.2262
101331.23
101331.1635
101331.1595
101331.1634
101331.1045
101331.1005
101331.1044
101328.6712
101328.6692
101328.6711
101328.6174
101328.6153
101328.6173
101328.567
101328.5648
101328.5669
101326.2881
101326.2875
101326.2881
101326.2528
101326.2521
101326.2528
101326.218
101326.2172
101326.218
)
;

boundaryField
{
    inlet
    {
        type            zeroGradient;
    }
    outlet
    {
        type            totalPressure;
        rho             rho;
        psi             none;
        gamma           1;
        p0              uniform 101325;
        value           uniform 101325;
    }
    walls
    {
        type            zeroGradient;
    }
    procBoundary1to0
    {
        type            processor;
        value           nonuniform List<scalar> 9(101334.2489 101334.2443 101334.2487 101334.1732 101334.1684 101334.173 101334.1068 101334.102 101334.1067);
    }
}


// ************************************************************************* //
