/*--------------------------------*- C++ -*----------------------------------*\
  =========                 |
  \\      /  F ield         | OpenFOAM: The Open Source CFD Toolbox
   \\    /   O peration     | Website:  https://openfoam.org
    \\  /    A nd           | Version:  7
     \\/     M anipulation  |
\*---------------------------------------------------------------------------*/
FoamFile
{
    version     2.0;
    format      ascii;
    class       surfaceScalarField;
    location    "0.01";
    object      phi;
}
// * * * * * * * * * * * * * * * * * * * * * * * * * * * * * * * * * * * * * //

dimensions      [0 3 -1 0 0 0 0];

internalField   nonuniform List<scalar> 
54
(
3.121800032e-08
-7.439539925e-09
4.647176598e-05
-3.077977524e-08
-8.131240261e-09
4.686885209e-05
-7.550632518e-09
4.647207172e-05
3.210707466e-08
-6.891008588e-08
4.67775372e-05
-3.18886644e-08
-7.073768839e-08
4.717702135e-05
-6.903803828e-08
4.67776731e-05
3.196811808e-08
4.629564466e-05
-3.175789966e-08
4.669339302e-05
4.629568919e-05
2.621212228e-08
-8.719568121e-08
4.748690349e-05
-2.647309514e-08
-8.8364239e-08
4.794278077e-05
-8.712199099e-08
4.748687804e-05
2.704728873e-08
-1.373258369e-07
4.773864631e-05
-2.726847021e-08
-1.39378692e-07
4.81983831e-05
-1.373134733e-07
4.773862463e-05
2.709058898e-08
4.709512908e-05
-2.726827703e-08
4.755102102e-05
4.709500405e-05
5.855136559e-09
-4.691402499e-07
-5.811360798e-09
-4.717384207e-07
-4.690636759e-07
6.50168378e-09
-4.795107237e-07
-6.377375495e-09
-4.820556481e-07
-4.794403935e-07
7.251706107e-09
-7.064451181e-09
)
;

boundaryField
{
    inlet
    {
        type            calculated;
        value           nonuniform 0();
    }
    outlet
    {
        type            calculated;
        value           nonuniform List<scalar> 9(4.961026859e-05 4.939762309e-05 4.827393434e-05 5.007833582e-05 4.98685608e-05 4.874094363e-05 4.961021193e-05 4.939773309e-05 4.827406961e-05);
    }
    walls
    {
        type            calculated;
        value           uniform 0;
    }
    procBoundary1to0
    {
        type            processor;
        value           nonuniform List<scalar> 9(-4.544850213e-05 -4.578174561e-05 -4.544826243e-05 -4.572745284e-05 -4.606136042e-05 -4.572732917e-05 -4.534229989e-05 -4.567621936e-05 -4.53422574e-05);
    }
}


// ************************************************************************* //
