/*--------------------------------*- C++ -*----------------------------------*\
  =========                 |
  \\      /  F ield         | OpenFOAM: The Open Source CFD Toolbox
   \\    /   O peration     | Website:  https://openfoam.org
    \\  /    A nd           | Version:  7
     \\/     M anipulation  |
\*---------------------------------------------------------------------------*/
FoamFile
{
    version     2.0;
    format      ascii;
    class       surfaceScalarField;
    location    "0.01";
    object      rhoPhi;
}
// * * * * * * * * * * * * * * * * * * * * * * * * * * * * * * * * * * * * * //

dimensions      [1 0 -1 0 0 0 0];

internalField   nonuniform List<scalar> 
54
(
3.358577204e-08
-8.003831722e-09
4.971860685e-05
-3.311431035e-08
-8.749010586e-09
5.014926392e-05
-8.123351048e-09
4.971893659e-05
3.454653553e-08
-7.413747608e-08
5.005188739e-05
-3.431153084e-08
-7.611254586e-08
5.04852076e-05
-7.427513358e-08
5.005203316e-05
3.439328818e-08
4.953082108e-05
-3.416712148e-08
4.996219249e-05
4.953086728e-05
2.789000989e-08
-9.277750749e-08
5.033370124e-05
-2.816768861e-08
-9.40318514e-08
5.082264441e-05
-9.269910193e-08
5.033367561e-05
2.87821628e-08
-1.461175757e-07
5.060617439e-05
-2.901753145e-08
-1.48319208e-07
5.109934368e-05
-1.461044195e-07
5.060615169e-05
2.88250438e-08
4.991842585e-05
-2.901410792e-08
5.040735066e-05
4.991829256e-05
6.183059242e-09
-4.954127607e-07
-6.136831832e-09
-4.982111917e-07
-4.953319041e-07
6.866512082e-09
-5.063609377e-07
-6.735228515e-09
-5.091043479e-07
-5.062866677e-07
7.657752944e-09
-7.460012959e-09
)
;

boundaryField
{
    inlet
    {
        type            calculated;
        value           nonuniform 0();
    }
    outlet
    {
        type            calculated;
        value           nonuniform List<scalar> 9(5.238520935e-05 5.216593647e-05 5.097354639e-05 5.288523839e-05 5.26690874e-05 5.147230374e-05 5.238515038e-05 5.216605277e-05 5.097368857e-05);
    }
    walls
    {
        type            calculated;
        value           uniform 0;
    }
    procBoundary1to0
    {
        type            processor;
        value           nonuniform List<scalar> 9(-4.928997793e-05 -4.965653883e-05 -4.928972125e-05 -4.959780822e-05 -4.996509675e-05 -4.959767441e-05 -4.91750908e-05 -4.954239589e-05 -4.917504293e-05);
    }
}


// ************************************************************************* //
