/*--------------------------------*- C++ -*----------------------------------*\
  =========                 |
  \\      /  F ield         | OpenFOAM: The Open Source CFD Toolbox
   \\    /   O peration     | Website:  https://openfoam.org
    \\  /    A nd           | Version:  7
     \\/     M anipulation  |
\*---------------------------------------------------------------------------*/
FoamFile
{
    version     2.0;
    format      ascii;
    class       volScalarField::Internal;
    location    "0.01";
    object      steelCloud:hsTrans;
}
// * * * * * * * * * * * * * * * * * * * * * * * * * * * * * * * * * * * * * //

dimensions      [1 2 -2 0 0 0 0];

value           nonuniform List<scalar> 
27
(
-2.68656701e-19
-2.689487445e-19
-2.68656701e-19
-2.689487445e-19
-2.692662581e-19
-2.689487445e-19
-2.68656701e-19
-2.689487445e-19
-2.68656701e-19
-2.126826881e-19
-2.128070966e-19
-2.126826881e-19
-2.128070966e-19
-2.129388113e-19
-2.128070966e-19
-2.126826881e-19
-2.128070966e-19
-2.126826881e-19
-1.813746615e-19
-1.814317407e-19
-1.813746615e-19
-1.814317407e-19
-1.814909581e-19
-1.814317407e-19
-1.813746615e-19
-1.814317407e-19
-1.813746615e-19
)
;


// ************************************************************************* //
