/*--------------------------------*- C++ -*----------------------------------*\
  =========                 |
  \\      /  F ield         | OpenFOAM: The Open Source CFD Toolbox
   \\    /   O peration     | Website:  https://openfoam.org
    \\  /    A nd           | Version:  7
     \\/     M anipulation  |
\*---------------------------------------------------------------------------*/
FoamFile
{
    version     2.0;
    format      ascii;
    class       volVectorField::Internal;
    location    "0.01";
    object      steelCloud:UTrans;
}
// * * * * * * * * * * * * * * * * * * * * * * * * * * * * * * * * * * * * * //

dimensions      [1 1 -1 0 0 0 0];

value           nonuniform List<vector> 
27
(
(-1.971696658e-08 6.783321346e-15 -5.905557843e-11)
(-1.973839992e-08 6.790695162e-15 -5.911977485e-11)
(-1.971696658e-08 6.783321346e-15 -5.905557843e-11)
(-1.973839992e-08 6.790695162e-15 -5.911977485e-11)
(-1.976170254e-08 6.798712072e-15 -5.918957005e-11)
(-1.973839992e-08 6.790695162e-15 -5.911977485e-11)
(-1.971696658e-08 6.783321346e-15 -5.905557843e-11)
(-1.973839992e-08 6.790695162e-15 -5.911977485e-11)
(-1.971696658e-08 6.783321346e-15 -5.905557843e-11)
(-1.560898142e-08 5.370031766e-15 -4.675148293e-11)
(-1.561811187e-08 5.37317296e-15 -4.677883016e-11)
(-1.560898142e-08 5.370031766e-15 -4.675148293e-11)
(-1.561811187e-08 5.37317296e-15 -4.677883016e-11)
(-1.562777854e-08 5.376498628e-15 -4.680778341e-11)
(-1.561811188e-08 5.37317296e-15 -4.677883016e-11)
(-1.560898142e-08 5.370031766e-15 -4.675148293e-11)
(-1.561811188e-08 5.37317296e-15 -4.677883016e-11)
(-1.560898142e-08 5.370031766e-15 -4.675148293e-11)
(-1.331125606e-08 4.579534435e-15 -3.986941517e-11)
(-1.331544516e-08 4.58097563e-15 -3.988196221e-11)
(-1.331125606e-08 4.579534435e-15 -3.986941517e-11)
(-1.331544516e-08 4.58097563e-15 -3.988196221e-11)
(-1.331979118e-08 4.582470812e-15 -3.989497926e-11)
(-1.331544516e-08 4.58097563e-15 -3.988196221e-11)
(-1.331125606e-08 4.579534435e-15 -3.986941517e-11)
(-1.331544516e-08 4.58097563e-15 -3.988196221e-11)
(-1.331125606e-08 4.579534435e-15 -3.986941517e-11)
)
;


// ************************************************************************* //
