/*--------------------------------*- C++ -*----------------------------------*\
  =========                 |
  \\      /  F ield         | OpenFOAM: The Open Source CFD Toolbox
   \\    /   O peration     | Website:  https://openfoam.org
    \\  /    A nd           | Version:  7
     \\/     M anipulation  |
\*---------------------------------------------------------------------------*/
FoamFile
{
    version     2.0;
    format      ascii;
    class       volScalarField;
    location    "0.01";
    object      T;
}
// * * * * * * * * * * * * * * * * * * * * * * * * * * * * * * * * * * * * * //

dimensions      [0 0 0 1 0 0 0];

internalField   nonuniform List<scalar> 
27
(
326.7174456
326.679538
326.7174252
326.6769025
326.6391565
326.6769028
326.7123185
326.6742585
326.7123336
330.3429306
330.3044707
330.3429205
330.3024096
330.2637136
330.3024094
330.3388214
330.300224
330.3388294
332.8382911
332.8019106
332.8382857
332.8046862
332.7679034
332.8046854
332.8420856
332.8056692
332.8420898
)
;

boundaryField
{
    inlet
    {
        type            fixedValue;
        value           nonuniform 0();
    }
    outlet
    {
        type            zeroGradient;
    }
    walls
    {
        type            zeroGradient;
    }
    procBoundary1to0
    {
        type            processor;
        value           nonuniform List<scalar> 9(321.5034082 321.4739383 321.5033908 321.4740384 321.4452274 321.47404 321.5037369 321.4741471 321.5037501);
    }
}


// ************************************************************************* //
