/*--------------------------------*- C++ -*----------------------------------*\
  =========                 |
  \\      /  F ield         | OpenFOAM: The Open Source CFD Toolbox
   \\    /   O peration     | Website:  https://openfoam.org
    \\  /    A nd           | Version:  7
     \\/     M anipulation  |
\*---------------------------------------------------------------------------*/
FoamFile
{
    version     2.0;
    format      ascii;
    class       volScalarField;
    location    "0.01";
    object      Tavg;
}
// * * * * * * * * * * * * * * * * * * * * * * * * * * * * * * * * * * * * * //

dimensions      [0 0 0 1 0 0 0];

internalField   nonuniform List<scalar> 
27
(
328.6452622
328.6452622
328.6452622
328.6452622
328.6452622
328.6452622
328.6452622
328.6452622
328.6452622
329.9741285
329.9741285
329.9741285
329.9741285
329.9741285
329.9741285
329.9741285
329.9741285
329.9741285
330.7136469
330.7136469
330.7136469
330.7136469
330.7136469
330.7136469
330.7136469
330.7136469
330.7136469
)
;

boundaryField
{
    inlet
    {
        type            fixedValue;
        value           nonuniform 0();
    }
    outlet
    {
        type            zeroGradient;
    }
    walls
    {
        type            zeroGradient;
    }
    procBoundary1to0
    {
        type            processor;
        value           nonuniform List<scalar> 9(327.0260757 327.0260757 327.0260757 327.0260757 327.0260757 327.0260757 327.0260757 327.0260757 327.0260757);
    }
}


// ************************************************************************* //
