/*--------------------------------*- C++ -*----------------------------------*\
  =========                 |
  \\      /  F ield         | OpenFOAM: The Open Source CFD Toolbox
   \\    /   O peration     | Website:  https://openfoam.org
    \\  /    A nd           | Version:  7
     \\/     M anipulation  |
\*---------------------------------------------------------------------------*/
FoamFile
{
    version     2.0;
    format      ascii;
    class       surfaceScalarField;
    location    "0.1";
    object      alphaRhoPhi;
}
// * * * * * * * * * * * * * * * * * * * * * * * * * * * * * * * * * * * * * //

dimensions      [1 0 -1 0 0 0 0];

internalField   nonuniform List<scalar> 
117
(
2.656500636e-08
3.668110807e-08
2.314791402e-05
-2.656459748e-08
3.614802594e-08
2.32281439e-05
3.668168229e-08
2.314791329e-05
2.614980035e-08
-1.674897541e-08
2.323842921e-05
-2.614859455e-08
-1.633210558e-08
2.3315921e-05
-1.67492705e-08
2.323842919e-05
2.673524126e-08
2.316764848e-05
-2.673443958e-08
2.324827104e-05
2.316764762e-05
3.113854444e-08
2.062357667e-08
2.309614375e-05
-3.113701495e-08
2.042695203e-08
2.326998234e-05
2.062405513e-08
2.309614403e-05
3.106992243e-08
-4.21170908e-08
2.327009031e-05
-3.106811822e-08
-4.198813823e-08
2.344046691e-05
-4.211735723e-08
2.327008875e-05
3.137828679e-08
2.309414577e-05
-3.137641811e-08
2.326902418e-05
2.309414468e-05
4.230869651e-08
9.327604306e-09
2.304449282e-05
-4.230787189e-08
9.674707612e-09
2.334491063e-05
9.327068247e-09
2.304448967e-05
4.260516938e-08
-7.341231948e-08
2.331021252e-05
-4.260364016e-08
-7.334298668e-08
2.36086706e-05
-7.341279234e-08
2.331021224e-05
4.266685816e-08
2.297804795e-05
-4.266683644e-08
2.328100239e-05
2.297804818e-05
4.954614569e-08
-3.071478362e-08
2.302564393e-05
-4.954470754e-08
-2.960553989e-08
2.347358262e-05
-3.071491119e-08
2.302564372e-05
4.991196147e-08
-1.231029941e-07
2.335266501e-05
-4.991144799e-08
-1.224723989e-07
2.380134689e-05
-1.231033065e-07
2.335266277e-05
5.007101081e-08
2.280485873e-05
-5.006953792e-08
2.325864444e-05
2.280485644e-05
4.725961423e-08
-1.315425506e-07
2.310990438e-05
-4.726097634e-08
-1.287831409e-07
2.369686649e-05
-1.315416573e-07
2.310990185e-05
4.760428585e-08
-2.183588361e-07
2.339185714e-05
-4.760273453e-08
-2.162106225e-07
2.398395811e-05
-2.183584546e-07
2.339185549e-05
4.768313421e-08
2.253879407e-05
-4.76827383e-08
2.313777829e-05
2.253879317e-05
3.301085712e-08
-3.677637452e-07
-3.301018954e-08
-3.611252713e-07
-3.677645801e-07
3.272144929e-08
-4.358062998e-07
-3.272136465e-08
-4.296245732e-07
-4.358064469e-07
3.213513975e-08
-3.213489872e-08
)
;

boundaryField
{
    inlet
    {
        type            calculated;
        value           nonuniform List<scalar> 9(-2.321116466e-05 -2.321114928e-05 -2.321113721e-05 -2.321116312e-05 -2.321114775e-05 -2.321113564e-05 -2.321116466e-05 -2.321114928e-05 -2.321113721e-05);
    }
    outlet
    {
        type            calculated;
        value           nonuniform List<scalar> 9(2.344463376e-05 2.342715462e-05 2.207082983e-05 2.412398923e-05 2.411787764e-05 2.277239994e-05 2.344463345e-05 2.342715223e-05 2.207082798e-05);
    }
    walls
    {
        type            calculated;
        value           uniform 0;
    }
}


// ************************************************************************* //
