/*--------------------------------*- C++ -*----------------------------------*\
  =========                 |
  \\      /  F ield         | OpenFOAM: The Open Source CFD Toolbox
   \\    /   O peration     | Website:  https://openfoam.org
    \\  /    A nd           | Version:  7
     \\/     M anipulation  |
\*---------------------------------------------------------------------------*/
FoamFile
{
    version     2.0;
    format      ascii;
    class       volScalarField;
    location    "0.1";
    object      kappaavg;
}
// * * * * * * * * * * * * * * * * * * * * * * * * * * * * * * * * * * * * * //

dimensions      [1 1 -3 -1 0 0 0];

internalField   nonuniform List<scalar> 
54
(
0.02726769919
0.02726769913
0.02726769919
0.02726770052
0.02726770047
0.02726770052
0.02726770195
0.0272677019
0.02726770195
0.02728769953
0.02728769931
0.02728769953
0.02728770181
0.02728770159
0.02728770181
0.02728770451
0.0272877043
0.02728770451
0.02732155704
0.0273215565
0.02732155704
0.02732156142
0.02732156087
0.02732156142
0.02732156686
0.02732156631
0.02732156686
0.02735962536
0.02735962436
0.02735962536
0.02735963297
0.02735963197
0.02735963297
0.02735964252
0.02735964151
0.02735964252
0.02739187361
0.02739187213
0.02739187361
0.02739188488
0.0273918834
0.02739188488
0.027391899
0.02739189751
0.027391899
0.02741024711
0.02741024531
0.02741024711
0.02741026097
0.02741025917
0.02741026097
0.02741027829
0.02741027648
0.02741027829
)
;

boundaryField
{
    inlet
    {
        type            calculated;
        value           uniform 0.02688265352;
    }
    outlet
    {
        type            calculated;
        value           nonuniform List<scalar> 9(0.02756954673 0.02756626255 0.0275722987 0.02756471985 0.02756165245 0.02756727722 0.02756954659 0.02756626241 0.02757229856);
    }
    walls
    {
        type            calculated;
        value           nonuniform List<scalar> 
72
(
0.02704246179
0.02719122386
0.02731844939
0.02742052696
0.02750128862
0.02756954673
0.02704276272
0.02719132465
0.0273178237
0.02741872533
0.02749804622
0.02756471985
0.02704246179
0.02719122387
0.0273184494
0.02742052693
0.02750128852
0.02756954659
0.02704246148
0.02719109794
0.02731833671
0.02742071413
0.0275022759
0.0275722987
0.02704276239
0.02719119682
0.02731770341
0.02741888683
0.0274989586
0.02756727722
0.02704246148
0.02719109795
0.02731833672
0.0274207141
0.02750227581
0.02757229856
0.02704246179
0.02704276253
0.02704246148
0.02719122387
0.02719125919
0.02719109795
0.0273184494
0.02731775872
0.02731833672
0.02742052693
0.02741881625
0.0274207141
0.02750128852
0.02749858428
0.02750227581
0.02756954659
0.02756626241
0.02757229856
0.02704246179
0.02704276253
0.02704246148
0.02719122386
0.02719125919
0.02719109794
0.02731844939
0.02731775871
0.02731833671
0.02742052696
0.02741881628
0.02742071413
0.02750128862
0.02749858437
0.0275022759
0.02756954673
0.02756626255
0.0275722987
)
;
    }
}


// ************************************************************************* //
