/*--------------------------------*- C++ -*----------------------------------*\
  =========                 |
  \\      /  F ield         | OpenFOAM: The Open Source CFD Toolbox
   \\    /   O peration     | Website:  https://openfoam.org
    \\  /    A nd           | Version:  7
     \\/     M anipulation  |
\*---------------------------------------------------------------------------*/
FoamFile
{
    version     2.0;
    format      ascii;
    class       surfaceScalarField;
    location    "0.1";
    object      phi;
}
// * * * * * * * * * * * * * * * * * * * * * * * * * * * * * * * * * * * * * //

dimensions      [0 3 -1 0 0 0 0];

internalField   nonuniform List<scalar> 
117
(
3.577224884e-08
4.939453407e-08
3.061472362e-05
-3.577169825e-08
4.873438926e-08
3.075500061e-05
4.939530731e-08
3.061472265e-05
3.525489681e-08
-2.255407112e-08
3.07685952e-05
-3.525327116e-08
-2.201878624e-08
3.091028289e-05
-2.255446849e-08
3.076859518e-05
3.600152806e-08
3.064077977e-05
-3.600044852e-08
3.078160433e-05
3.064077864e-05
4.051034166e-08
2.683064552e-08
2.902939274e-05
-4.050835184e-08
2.660653318e-08
2.927371757e-05
2.683126798e-08
2.90293931e-05
4.046918213e-08
-5.479294196e-08
2.927379137e-05
-4.046683211e-08
-5.469031697e-08
2.951808067e-05
-5.479328859e-08
2.927378942e-05
4.082207216e-08
2.902677163e-05
-4.081964108e-08
2.927239567e-05
2.902677028e-05
5.148836659e-08
1.135139211e-08
2.700118273e-05
-5.148736305e-08
1.178230949e-08
2.736570833e-05
1.135073974e-08
2.700117904e-05
5.188650472e-08
-8.934025657e-08
2.732506443e-05
-5.188464237e-08
-8.932033404e-08
2.768936697e-05
-8.934083206e-08
2.732506409e-05
5.192404782e-08
2.692340176e-05
-5.192402139e-08
2.72908474e-05
2.692340202e-05
5.600464473e-08
-3.47186297e-08
2.526939172e-05
-5.600301909e-08
-3.347392747e-08
2.576414924e-05
-3.471877385e-08
2.526939144e-05
5.643379642e-08
-1.391507866e-07
2.563178039e-05
-5.643321581e-08
-1.384757139e-07
2.612815604e-05
-1.391511396e-07
2.563177787e-05
5.659840172e-08
2.502772798e-05
-5.659673679e-08
2.552883283e-05
2.502772542e-05
5.040867671e-08
-1.403092624e-07
2.42812954e-05
-5.04101295e-08
-1.373667386e-07
2.489619993e-05
-1.403083092e-07
2.428129265e-05
5.077776561e-08
-2.329163456e-07
2.457682357e-05
-5.077611079e-08
-2.306258802e-07
2.519743852e-05
-2.329159378e-07
2.457682173e-05
5.086247304e-08
2.368309138e-05
-5.086205064e-08
2.431058372e-05
2.368309034e-05
3.417233719e-08
-3.807156756e-07
-3.417164604e-08
-3.737925692e-07
-3.807165382e-07
3.387031802e-08
-4.511804432e-07
-3.387023033e-08
-4.447183656e-07
-4.511805933e-07
3.326949169e-08
-3.326924207e-08
)
;

boundaryField
{
    inlet
    {
        type            calculated;
        value           nonuniform List<scalar> 9(-3.102855299e-05 -3.106290004e-05 -3.102855299e-05 -3.106290004e-05 -3.11013218e-05 -3.106290004e-05 -3.102855299e-05 -3.106290004e-05 -3.102855299e-05);
    }
    outlet
    {
        type            calculated;
        value           nonuniform List<scalar> 9(2.427129313e-05 2.425131598e-05 2.285165645e-05 2.497106723e-05 2.496308307e-05 2.357451912e-05 2.427129269e-05 2.425131338e-05 2.285165442e-05);
    }
    walls
    {
        type            calculated;
        value           uniform 0;
    }
}


// ************************************************************************* //
