/*--------------------------------*- C++ -*----------------------------------*\
  =========                 |
  \\      /  F ield         | OpenFOAM: The Open Source CFD Toolbox
   \\    /   O peration     | Website:  https://openfoam.org
    \\  /    A nd           | Version:  7
     \\/     M anipulation  |
\*---------------------------------------------------------------------------*/
FoamFile
{
    version     2.0;
    format      ascii;
    class       surfaceScalarField;
    location    "0.1";
    object      rhoPhi;
}
// * * * * * * * * * * * * * * * * * * * * * * * * * * * * * * * * * * * * * //

dimensions      [1 0 -1 0 0 0 0];

internalField   nonuniform List<scalar> 
117
(
4.190699542e-08
5.786541163e-08
3.575321976e-05
-4.19063504e-08
5.709128671e-08
3.591673556e-05
5.786631748e-08
3.575321862e-05
4.130033966e-08
-2.642194872e-08
3.593263932e-05
-4.129843525e-08
-2.579451845e-08
3.609769752e-05
-2.642241424e-08
3.593263929e-05
4.217554545e-08
3.57837007e-05
-4.217428078e-08
3.594785735e-05
3.578369938e-05
4.716146655e-08
3.123582488e-08
3.370569829e-05
-4.715915004e-08
3.097471947e-08
3.398975067e-05
3.123654954e-08
3.370569869e-05
4.711334955e-08
-6.378922986e-08
3.398990838e-05
-4.71106137e-08
-6.366935217e-08
3.427374574e-05
-6.37896334e-08
3.398990611e-05
4.752457282e-08
3.370278251e-05
-4.752174258e-08
3.398835112e-05
3.370278092e-05
5.962386494e-08
1.314500009e-08
3.120063517e-05
-5.962270283e-08
1.364431857e-08
3.16234518e-05
1.314424464e-08
3.120063091e-05
6.008641576e-08
-1.034568914e-07
3.15764491e-05
-6.008425909e-08
-1.034362087e-07
3.199882045e-05
-1.034575578e-07
3.157644872e-05
6.012860708e-08
3.111067345e-05
-6.012857647e-08
3.153688051e-05
3.111067377e-05
6.457944565e-08
-4.003426849e-08
2.908835577e-05
-6.457757114e-08
-3.860173796e-08
2.966099489e-05
-4.003443477e-08
2.90883555e-05
6.507864626e-08
-1.604549255e-07
2.950820456e-05
-6.507797675e-08
-1.596879322e-07
3.008254878e-05
-1.604553327e-07
2.950820172e-05
6.526356542e-08
2.880943725e-05
-6.526164564e-08
2.938940106e-05
2.880943436e-05
5.793328022e-08
-1.612516642e-07
2.786441356e-05
-5.793494996e-08
-1.578905024e-07
2.857484171e-05
-1.612505692e-07
2.786441052e-05
5.836373115e-08
-2.676755586e-07
2.820704651e-05
-5.836182919e-08
-2.65078205e-07
2.892391438e-05
-2.676750909e-07
2.820704451e-05
5.845245293e-08
2.717580604e-05
-5.845196759e-08
2.790066579e-05
2.717580496e-05
3.916335013e-08
-4.363067661e-07
-3.916255812e-08
-4.28456625e-07
-4.363077567e-07
3.882232244e-08
-5.170309467e-07
-3.882222202e-08
-5.097275357e-07
-5.170311212e-07
3.812441843e-08
-3.812413247e-08
)
;

boundaryField
{
    inlet
    {
        type            calculated;
        value           nonuniform List<scalar> 9(-3.659597829e-05 -3.663646391e-05 -3.659593501e-05 -3.663648575e-05 -3.668177721e-05 -3.663644239e-05 -3.659597829e-05 -3.663646391e-05 -3.659593501e-05);
    }
    outlet
    {
        type            calculated;
        value           nonuniform List<scalar> 9(2.781337895e-05 2.779427263e-05 2.618357617e-05 2.862100602e-05 2.861549621e-05 2.701746339e-05 2.781337858e-05 2.779426978e-05 2.618357397e-05);
    }
    walls
    {
        type            calculated;
        value           uniform 0;
    }
}


// ************************************************************************* //
