/*--------------------------------*- C++ -*----------------------------------*\
  =========                 |
  \\      /  F ield         | OpenFOAM: The Open Source CFD Toolbox
   \\    /   O peration     | Website:  https://openfoam.org
    \\  /    A nd           | Version:  7
     \\/     M anipulation  |
\*---------------------------------------------------------------------------*/
FoamFile
{
    version     2.0;
    format      ascii;
    class       volScalarField::Internal;
    location    "0.1";
    object      steelCloud:hsTrans;
}
// * * * * * * * * * * * * * * * * * * * * * * * * * * * * * * * * * * * * * //

dimensions      [1 2 -2 0 0 0 0];

value           nonuniform List<scalar> 
54
(
0.0002373528316
0.0002378079521
0.0002373528316
0.0002378079521
0.000238315874
0.0002378079521
0.0002373528316
0.0002378079521
0.0002373528316
0.000220244698
0.000220715982
0.000220244698
0.000220715982
0.0002212599391
0.000220715982
0.000220244698
0.000220715982
0.000220244698
0.0001882997063
0.0001886227752
0.0001882997063
0.0001886227752
0.0001889855328
0.0001886227752
0.0001882997063
0.0001886227752
0.0001882997063
0.0001509869716
0.0001511511021
0.0001509869716
0.0001511511021
0.000151329547
0.0001511511021
0.0001509869716
0.0001511511021
0.0001509869716
0.0001195291793
0.0001195990978
0.0001195291793
0.0001195990978
0.0001196731224
0.0001195990978
0.0001195291793
0.0001195990978
0.0001195291793
0.0001019338463
0.0001019659252
0.0001019338463
0.0001019659252
0.0001019992058
0.0001019659252
0.0001019338463
0.0001019659252
0.0001019338463
)
;


// ************************************************************************* //
