/*--------------------------------*- C++ -*----------------------------------*\
  =========                 |
  \\      /  F ield         | OpenFOAM: The Open Source CFD Toolbox
   \\    /   O peration     | Website:  https://openfoam.org
    \\  /    A nd           | Version:  7
     \\/     M anipulation  |
\*---------------------------------------------------------------------------*/
FoamFile
{
    version     2.0;
    format      ascii;
    class       surfaceScalarField;
    location    "0.035";
    object      alphaRhoPhi;
}
// * * * * * * * * * * * * * * * * * * * * * * * * * * * * * * * * * * * * * //

dimensions      [1 0 -1 0 0 0 0];

internalField   nonuniform List<scalar> 
54
(
4.87088808e-08
-3.230374774e-08
2.302852942e-05
-4.893139628e-08
-3.13111642e-08
2.347147758e-05
-3.220092818e-08
2.302807589e-05
4.927059416e-08
-1.24162576e-07
2.334919953e-05
-4.928321594e-08
-1.237691685e-07
2.379316949e-05
-1.241667483e-07
2.334922089e-05
4.934069498e-08
2.28012592e-05
-4.94488782e-08
2.324969088e-05
2.280100161e-05
4.617507155e-08
-1.309204858e-07
2.308056518e-05
-4.616478693e-08
-1.288632739e-07
2.366067869e-05
-1.309497196e-07
2.308014498e-05
4.660036339e-08
-2.168334815e-07
2.335637318e-05
-4.662237764e-08
-2.155297568e-07
2.394162479e-05
-2.16858536e-07
2.335636733e-05
4.664172328e-08
2.250480205e-05
-4.668671423e-08
2.309522226e-05
2.250447565e-05
3.124973712e-08
-3.616836858e-07
-3.124273091e-08
-3.567361866e-07
-3.616493538e-07
3.131156739e-08
-4.267275262e-07
-3.121960355e-08
-4.224653401e-07
-4.267429493e-07
3.094509703e-08
-3.090178093e-08
)
;

boundaryField
{
    inlet
    {
        type            calculated;
        value           nonuniform 0();
    }
    outlet
    {
        type            calculated;
        value           nonuniform List<scalar> 9(2.335339659e-05 2.333323466e-05 2.198900221e-05 2.402331388e-05 2.401403039e-05 2.267747775e-05 2.335295044e-05 2.333337094e-05 2.198870296e-05);
    }
    walls
    {
        type            calculated;
        value           uniform 0;
    }
    procBoundary1to0
    {
        type            processor;
        value           nonuniform List<scalar> 9(-2.305687219e-05 -2.33540907e-05 -2.305673629e-05 -2.331823343e-05 -2.361342588e-05 -2.331817279e-05 -2.298679877e-05 -2.328635429e-05 -2.298665596e-05);
    }
}


// ************************************************************************* //
