/*--------------------------------*- C++ -*----------------------------------*\
  =========                 |
  \\      /  F ield         | OpenFOAM: The Open Source CFD Toolbox
   \\    /   O peration     | Website:  https://openfoam.org
    \\  /    A nd           | Version:  7
     \\/     M anipulation  |
\*---------------------------------------------------------------------------*/
FoamFile
{
    version     2.0;
    format      ascii;
    class       volScalarField;
    location    "0.035";
    object      cpavg;
}
// * * * * * * * * * * * * * * * * * * * * * * * * * * * * * * * * * * * * * //

dimensions      [0 2 -2 -1 0 0 0];

internalField   nonuniform List<scalar> 
27
(
1011.730017
1011.730015
1011.730017
1011.730034
1011.730033
1011.730034
1011.730055
1011.730053
1011.730055
1011.76596
1011.765957
1011.76596
1011.765985
1011.765982
1011.765985
1011.766014
1011.766012
1011.766014
1011.787002
1011.786999
1011.787002
1011.787032
1011.787029
1011.787032
1011.787068
1011.787065
1011.787068
)
;

boundaryField
{
    inlet
    {
        type            calculated;
        value           nonuniform 0();
    }
    outlet
    {
        type            calculated;
        value           nonuniform List<scalar> 9(1012.014826 1012.008652 1012.020482 1012.005602 1011.999659 1012.010966 1012.014834 1012.008651 1012.020489);
    }
    walls
    {
        type            calculated;
        value           nonuniform List<scalar> 
36
(
1011.750684
1011.872625
1012.014826
1011.748211
1011.867338
1012.005602
1011.750687
1011.87264
1012.014834
1011.751206
1011.874598
1012.020482
1011.748706
1011.869201
1012.010966
1011.751211
1011.874603
1012.020489
1011.750687
1011.748473
1011.751211
1011.87264
1011.868361
1011.874603
1012.014834
1012.008651
1012.020489
1011.750684
1011.74847
1011.751206
1011.872625
1011.868362
1011.874598
1012.014826
1012.008652
1012.020482
)
;
    }
    procBoundary1to0
    {
        type            processor;
        value           nonuniform List<scalar> 9(1011.689075 1011.689074 1011.689075 1011.689085 1011.689085 1011.689085 1011.689098 1011.689097 1011.689098);
    }
}


// ************************************************************************* //
