/*--------------------------------*- C++ -*----------------------------------*\
  =========                 |
  \\      /  F ield         | OpenFOAM: The Open Source CFD Toolbox
   \\    /   O peration     | Website:  https://openfoam.org
    \\  /    A nd           | Version:  7
     \\/     M anipulation  |
\*---------------------------------------------------------------------------*/
FoamFile
{
    version     2.0;
    format      ascii;
    class       volScalarField;
    location    "0.035";
    object      muavg;
}
// * * * * * * * * * * * * * * * * * * * * * * * * * * * * * * * * * * * * * //

dimensions      [1 -1 -1 0 0 0 0];

internalField   nonuniform List<scalar> 
27
(
1.870394233e-05
1.870394094e-05
1.87039424e-05
1.870395671e-05
1.870395532e-05
1.870395677e-05
1.870397387e-05
1.870397247e-05
1.870397393e-05
1.873514635e-05
1.873514423e-05
1.873514643e-05
1.873516678e-05
1.873516466e-05
1.873516686e-05
1.873519143e-05
1.873518929e-05
1.873519151e-05
1.875337879e-05
1.875337613e-05
1.875337888e-05
1.875340346e-05
1.875340079e-05
1.875340355e-05
1.875343339e-05
1.875343071e-05
1.875343348e-05
)
;

boundaryField
{
    inlet
    {
        type            calculated;
        value           nonuniform 0();
    }
    outlet
    {
        type            calculated;
        value           nonuniform List<scalar> 9(1.894778339e-05 1.894268804e-05 1.895244728e-05 1.894016822e-05 1.893525587e-05 1.894459822e-05 1.894778979e-05 1.894268712e-05 1.895245292e-05);
    }
    walls
    {
        type            calculated;
        value           nonuniform List<scalar> 
36
(
1.872475786e-05
1.882902178e-05
1.894778339e-05
1.872261886e-05
1.882454865e-05
1.894016822e-05
1.872476053e-05
1.882903392e-05
1.894778979e-05
1.872520876e-05
1.88306895e-05
1.895244728e-05
1.872304726e-05
1.88261254e-05
1.894459822e-05
1.872521314e-05
1.883069368e-05
1.895245292e-05
1.872476053e-05
1.872284586e-05
1.872521314e-05
1.882903392e-05
1.88254142e-05
1.883069368e-05
1.894778979e-05
1.894268712e-05
1.895245292e-05
1.872475786e-05
1.872284299e-05
1.872520876e-05
1.882902178e-05
1.882541546e-05
1.88306895e-05
1.894778339e-05
1.894268804e-05
1.895244728e-05
)
;
    }
    procBoundary1to0
    {
        type            processor;
        value           nonuniform List<scalar> 9(1.866830582e-05 1.866830508e-05 1.866830587e-05 1.866831475e-05 1.866831401e-05 1.86683148e-05 1.866832519e-05 1.866832444e-05 1.866832524e-05);
    }
}


// ************************************************************************* //
