/*--------------------------------*- C++ -*----------------------------------*\
  =========                 |
  \\      /  F ield         | OpenFOAM: The Open Source CFD Toolbox
   \\    /   O peration     | Website:  https://openfoam.org
    \\  /    A nd           | Version:  7
     \\/     M anipulation  |
\*---------------------------------------------------------------------------*/
FoamFile
{
    version     2.0;
    format      ascii;
    class       volScalarField;
    location    "0.035";
    object      p;
}
// * * * * * * * * * * * * * * * * * * * * * * * * * * * * * * * * * * * * * //

dimensions      [1 -1 -2 0 0 0 0];

internalField   nonuniform List<scalar> 
27
(
101325.8591
101325.8559
101325.8591
101325.7989
101325.7955
101325.7989
101325.7462
101325.7426
101325.7462
101325.5179
101325.5167
101325.5179
101325.4687
101325.4673
101325.4687
101325.4213
101325.4196
101325.4213
101325.1938
101325.195
101325.1938
101325.1634
101325.1644
101325.1634
101325.1295
101325.1302
101325.1295
)
;

boundaryField
{
    inlet
    {
        type            zeroGradient;
    }
    outlet
    {
        type            totalPressure;
        rho             rho;
        psi             none;
        gamma           1;
        p0              uniform 101325;
        value           uniform 101325;
    }
    walls
    {
        type            zeroGradient;
    }
    procBoundary1to0
    {
        type            processor;
        value           nonuniform List<scalar> 9(101326.4464 101326.4421 101326.4464 101326.3807 101326.3763 101326.3807 101326.325 101326.3204 101326.325);
    }
}


// ************************************************************************* //
