/*--------------------------------*- C++ -*----------------------------------*\
  =========                 |
  \\      /  F ield         | OpenFOAM: The Open Source CFD Toolbox
   \\    /   O peration     | Website:  https://openfoam.org
    \\  /    A nd           | Version:  7
     \\/     M anipulation  |
\*---------------------------------------------------------------------------*/
FoamFile
{
    version     2.0;
    format      ascii;
    class       volScalarField;
    location    "0.035";
    object      pDyn;
}
// * * * * * * * * * * * * * * * * * * * * * * * * * * * * * * * * * * * * * //

dimensions      [1 -1 -2 0 0 0 0];

internalField   nonuniform List<scalar> 
27
(
1.58671705
1.637154751
1.586647311
1.627474324
1.678662607
1.6274635
1.569622597
1.620241534
1.569560575
1.381205916
1.442626252
1.381149058
1.418966772
1.481587182
1.418960675
1.339484653
1.400748742
1.339441002
1.287782685
1.360855836
1.287709544
1.296486579
1.370984532
1.296527345
1.171138395
1.24247316
1.171109402
)
;

boundaryField
{
    inlet
    {
        type            calculated;
        value           nonuniform 0();
    }
    outlet
    {
        type            calculated;
        value           nonuniform List<scalar> 9(1.287780229 1.296484493 1.171136896 1.360853226 1.370982313 1.242471562 1.287707088 1.296525259 1.171107903);
    }
    walls
    {
        type            calculated;
        value           uniform 0;
    }
    procBoundary1to0
    {
        type            processor;
        value           nonuniform List<scalar> 9(1.835431148 1.873215828 1.835355102 1.871102657 1.909231783 1.87109679 1.831585939 1.869609185 1.831544816);
    }
}


// ************************************************************************* //
