/*--------------------------------*- C++ -*----------------------------------*\
  =========                 |
  \\      /  F ield         | OpenFOAM: The Open Source CFD Toolbox
   \\    /   O peration     | Website:  https://openfoam.org
    \\  /    A nd           | Version:  7
     \\/     M anipulation  |
\*---------------------------------------------------------------------------*/
FoamFile
{
    version     2.0;
    format      ascii;
    class       surfaceScalarField;
    location    "0.035";
    object      rhoPhi;
}
// * * * * * * * * * * * * * * * * * * * * * * * * * * * * * * * * * * * * * //

dimensions      [1 0 -1 0 0 0 0];

internalField   nonuniform List<scalar> 
54
(
6.348813769e-08
-4.210535638e-08
2.909200102e-05
-6.377816887e-08
-4.082564818e-08
2.965833498e-05
-4.197133929e-08
2.909142807e-05
6.424238747e-08
-1.61836006e-07
2.95038256e-05
-6.425884461e-08
-1.613787496e-07
3.007221335e-05
-1.618414442e-07
2.950385259e-05
6.431165704e-08
2.880488996e-05
-6.445266523e-08
2.937808743e-05
2.880456454e-05
5.660379169e-08
-1.60489105e-07
2.782903827e-05
-5.659118427e-08
-1.57988747e-07
2.853120469e-05
-1.605249413e-07
2.782853162e-05
5.713290372e-08
-2.658057001e-07
2.816425821e-05
-5.715989359e-08
-2.642434511e-07
2.88728617e-05
-2.658364131e-07
2.816425116e-05
5.717583752e-08
2.713482069e-05
-5.723098976e-08
2.784934965e-05
2.713442713e-05
3.707399635e-08
-4.290935183e-07
-3.706568433e-08
-4.232492008e-07
-4.290527875e-07
3.714956983e-08
-5.062600907e-07
-3.704045945e-08
-5.012334725e-07
-5.062783883e-07
3.671257808e-08
-3.666118883e-08
)
;

boundaryField
{
    inlet
    {
        type            calculated;
        value           nonuniform 0();
    }
    outlet
    {
        type            calculated;
        value           nonuniform List<scalar> 9(2.770514036e-05 2.76828448e-05 2.608650054e-05 2.850156351e-05 2.849228302e-05 2.69048465e-05 2.770461108e-05 2.768300648e-05 2.608614553e-05);
    }
    walls
    {
        type            calculated;
        value           uniform 0;
    }
    procBoundary1to0
    {
        type            processor;
        value           nonuniform List<scalar> 9(-3.121739598e-05 -3.16358873e-05 -3.121721197e-05 -3.158731437e-05 -3.200526569e-05 -3.158723223e-05 -3.112252145e-05 -3.15441303e-05 -3.112232809e-05);
    }
}


// ************************************************************************* //
