/*--------------------------------*- C++ -*----------------------------------*\
  =========                 |
  \\      /  F ield         | OpenFOAM: The Open Source CFD Toolbox
   \\    /   O peration     | Website:  https://openfoam.org
    \\  /    A nd           | Version:  7
     \\/     M anipulation  |
\*---------------------------------------------------------------------------*/
FoamFile
{
    version     2.0;
    format      ascii;
    class       volScalarField::Internal;
    location    "0.035";
    object      steelCloud:UCoeff;
}
// * * * * * * * * * * * * * * * * * * * * * * * * * * * * * * * * * * * * * //

dimensions      [1 0 0 0 0 0 0];

value           nonuniform List<scalar> 
27
(
2.226790362e-08
2.229210996e-08
2.226790362e-08
2.229210996e-08
2.231842742e-08
2.229210996e-08
2.226790362e-08
2.229210996e-08
2.226790362e-08
1.762843653e-08
1.763874826e-08
1.762843653e-08
1.763874826e-08
1.764966558e-08
1.763874826e-08
1.762843653e-08
1.763874826e-08
1.762843653e-08
1.50334366e-08
1.503816768e-08
1.50334366e-08
1.503816768e-08
1.504307597e-08
1.503816768e-08
1.50334366e-08
1.503816768e-08
1.50334366e-08
)
;


// ************************************************************************* //
