/*--------------------------------*- C++ -*----------------------------------*\
  =========                 |
  \\      /  F ield         | OpenFOAM: The Open Source CFD Toolbox
   \\    /   O peration     | Website:  https://openfoam.org
    \\  /    A nd           | Version:  7
     \\/     M anipulation  |
\*---------------------------------------------------------------------------*/
FoamFile
{
    version     2.0;
    format      ascii;
    class       volScalarField::Internal;
    location    "0.035";
    object      steelCloud:hsTrans;
}
// * * * * * * * * * * * * * * * * * * * * * * * * * * * * * * * * * * * * * //

dimensions      [1 2 -2 0 0 0 0];

value           nonuniform List<scalar> 
27
(
0.0001473269874
0.0001474871393
0.0001473269874
0.0001474871393
0.0001476612586
0.0001474871393
0.0001473269874
0.0001474871393
0.0001473269874
0.0001166317445
0.0001166999681
0.0001166317445
0.0001166999681
0.0001167721983
0.0001166999681
0.0001166317445
0.0001166999681
0.0001166317445
9.946292938e-05
9.949423069e-05
9.946292938e-05
9.949423069e-05
9.952670455e-05
9.949423069e-05
9.946292938e-05
9.949423069e-05
9.946292938e-05
)
;


// ************************************************************************* //
