/*--------------------------------*- C++ -*----------------------------------*\
  =========                 |
  \\      /  F ield         | OpenFOAM: The Open Source CFD Toolbox
   \\    /   O peration     | Website:  https://openfoam.org
    \\  /    A nd           | Version:  7
     \\/     M anipulation  |
\*---------------------------------------------------------------------------*/
FoamFile
{
    version     2.0;
    format      ascii;
    class       volScalarField::Internal;
    location    "0.035";
    object      steelCloud:hsCoeff;
}
// * * * * * * * * * * * * * * * * * * * * * * * * * * * * * * * * * * * * * //

dimensions      [1 2 -2 -1 0 0 0];

value           nonuniform List<scalar> 
27
(
4.336614988e-06
4.341329109e-06
4.336614988e-06
4.341329109e-06
4.346454364e-06
4.341329109e-06
4.336614988e-06
4.341329109e-06
4.336614988e-06
3.433091115e-06
3.435099297e-06
3.433091115e-06
3.435099297e-06
3.437225415e-06
3.435099298e-06
3.433091115e-06
3.435099298e-06
3.433091115e-06
2.927721783e-06
2.928643147e-06
2.927721783e-06
2.928643147e-06
2.929599025e-06
2.928643147e-06
2.927721783e-06
2.928643147e-06
2.927721783e-06
)
;


// ************************************************************************* //
