/*--------------------------------*- C++ -*----------------------------------*\
  =========                 |
  \\      /  F ield         | OpenFOAM: The Open Source CFD Toolbox
   \\    /   O peration     | Website:  https://openfoam.org
    \\  /    A nd           | Version:  7
     \\/     M anipulation  |
\*---------------------------------------------------------------------------*/
FoamFile
{
    version     2.0;
    format      ascii;
    class       volScalarField;
    location    "0.035";
    object      T;
}
// * * * * * * * * * * * * * * * * * * * * * * * * * * * * * * * * * * * * * //

dimensions      [0 0 0 1 0 0 0];

internalField   nonuniform List<scalar> 
27
(
304.6842059
304.6532627
304.6842472
304.6560621
304.6275636
304.6560905
304.6899341
304.6585953
304.6899831
306.1478994
306.081217
306.1480439
306.0941513
306.0306138
306.0941585
306.172582
306.1043618
306.1726583
307.8016075
307.6828179
307.8017606
307.7235185
307.6083307
307.7235213
307.8766284
307.7532477
307.8767357
)
;

boundaryField
{
    inlet
    {
        type            fixedValue;
        value           nonuniform 0();
    }
    outlet
    {
        type            zeroGradient;
    }
    walls
    {
        type            zeroGradient;
    }
    procBoundary1to0
    {
        type            processor;
        value           nonuniform List<scalar> 9(303.2501881 303.2406892 303.2502096 303.2403718 303.2326897 303.2403711 303.2497742 303.2401658 303.2497842);
    }
}


// ************************************************************************* //
