/*--------------------------------*- C++ -*----------------------------------*\
  =========                 |
  \\      /  F ield         | OpenFOAM: The Open Source CFD Toolbox
   \\    /   O peration     | Website:  https://openfoam.org
    \\  /    A nd           | Version:  7
     \\/     M anipulation  |
\*---------------------------------------------------------------------------*/
FoamFile
{
    version     2.0;
    format      ascii;
    class       volScalarField;
    location    "0.035";
    object      Tavg;
}
// * * * * * * * * * * * * * * * * * * * * * * * * * * * * * * * * * * * * * //

dimensions      [0 0 0 1 0 0 0];

internalField   nonuniform List<scalar> 
27
(
304.6172388
304.6172124
304.61724
304.6175128
304.6174864
304.617514
304.6178396
304.6178131
304.6178408
305.2087928
305.2087525
305.2087944
305.2091823
305.2091418
305.2091838
305.2096519
305.2096112
305.2096534
305.5545166
305.5544659
305.5545183
305.5549869
305.5549361
305.5549885
305.5555573
305.5555062
305.5555589
)
;

boundaryField
{
    inlet
    {
        type            fixedValue;
        value           nonuniform 0();
    }
    outlet
    {
        type            zeroGradient;
    }
    walls
    {
        type            zeroGradient;
    }
    procBoundary1to0
    {
        type            processor;
        value           nonuniform List<scalar> 9(303.9418624 303.9418482 303.9418633 303.9420325 303.9420183 303.9420334 303.9422314 303.9422171 303.9422322);
    }
}


// ************************************************************************* //
