/*--------------------------------*- C++ -*----------------------------------*\
  =========                 |
  \\      /  F ield         | OpenFOAM: The Open Source CFD Toolbox
   \\    /   O peration     | Website:  https://openfoam.org
    \\  /    A nd           | Version:  7
     \\/     M anipulation  |
\*---------------------------------------------------------------------------*/
FoamFile
{
    version     2.0;
    format      ascii;
    class       surfaceScalarField;
    location    "0.09";
    object      alphaRhoPhi;
}
// * * * * * * * * * * * * * * * * * * * * * * * * * * * * * * * * * * * * * //

dimensions      [1 0 -1 0 0 0 0];

internalField   nonuniform List<scalar> 
54
(
4.954193202e-08
-3.072220063e-08
2.302567977e-05
-4.954035834e-08
-2.961342718e-08
2.347356742e-05
-3.07223242e-08
2.302567986e-05
4.990770868e-08
-1.231029233e-07
2.335263906e-05
-4.990704996e-08
-1.224727581e-07
2.380126595e-05
-1.231032352e-07
2.335263709e-05
5.006659684e-08
2.280486962e-05
-5.006498364e-08
2.325860205e-05
2.280486763e-05
4.725390912e-08
-1.315495358e-07
2.310995371e-05
-4.725515501e-08
-1.287912257e-07
2.369684808e-05
-1.315486299e-07
2.310995158e-05
4.75985859e-08
-2.183567539e-07
2.339182813e-05
-4.759685452e-08
-2.162098504e-07
2.398385649e-05
-2.183563895e-07
2.339182696e-05
4.767708532e-08
2.2538814e-05
-4.76765559e-08
2.313772476e-05
2.253881352e-05
3.300427191e-08
-3.677696024e-07
-3.300360607e-08
-3.61134206e-07
-3.677704157e-07
3.271518137e-08
-4.358013426e-07
-3.271492729e-08
-4.296232386e-07
-4.358015185e-07
3.212894093e-08
-3.212864666e-08
)
;

boundaryField
{
    inlet
    {
        type            calculated;
        value           nonuniform 0();
    }
    outlet
    {
        type            calculated;
        value           nonuniform List<scalar> 9(2.344470715e-05 2.342713181e-05 2.207087284e-05 2.412397709e-05 2.411776269e-05 2.277234609e-05 2.34447072e-05 2.342713012e-05 2.207087143e-05);
    }
    walls
    {
        type            calculated;
        value           uniform 0;
    }
    procBoundary1to0
    {
        type            processor;
        value           nonuniform List<scalar> 9(-2.3044521e-05 -2.334490022e-05 -2.304451802e-05 -2.331019392e-05 -2.360861011e-05 -2.331019375e-05 -2.297805832e-05 -2.328097344e-05 -2.297805869e-05);
    }
}


// ************************************************************************* //
