/*--------------------------------*- C++ -*----------------------------------*\
  =========                 |
  \\      /  F ield         | OpenFOAM: The Open Source CFD Toolbox
   \\    /   O peration     | Website:  https://openfoam.org
    \\  /    A nd           | Version:  7
     \\/     M anipulation  |
\*---------------------------------------------------------------------------*/
FoamFile
{
    version     2.0;
    format      ascii;
    class       volScalarField;
    location    "0.09";
    object      p;
}
// * * * * * * * * * * * * * * * * * * * * * * * * * * * * * * * * * * * * * //

dimensions      [1 -1 -2 0 0 0 0];

internalField   nonuniform List<scalar> 
27
(
101325.8552
101325.8519
101325.8552
101325.7949
101325.7915
101325.7949
101325.7421
101325.7385
101325.7421
101325.5159
101325.5146
101325.5159
101325.4667
101325.4652
101325.4667
101325.4191
101325.4173
101325.4191
101325.1944
101325.1957
101325.1944
101325.164
101325.1651
101325.164
101325.1297
101325.1304
101325.1297
)
;

boundaryField
{
    inlet
    {
        type            zeroGradient;
    }
    outlet
    {
        type            totalPressure;
        rho             rho;
        psi             none;
        gamma           1;
        p0              uniform 101325;
        value           uniform 101325;
    }
    walls
    {
        type            zeroGradient;
    }
    procBoundary1to0
    {
        type            processor;
        value           nonuniform List<scalar> 9(101326.4397 101326.4353 101326.4397 101326.3739 101326.3694 101326.3739 101326.3181 101326.3135 101326.3181);
    }
}


// ************************************************************************* //
