/*--------------------------------*- C++ -*----------------------------------*\
  =========                 |
  \\      /  F ield         | OpenFOAM: The Open Source CFD Toolbox
   \\    /   O peration     | Website:  https://openfoam.org
    \\  /    A nd           | Version:  7
     \\/     M anipulation  |
\*---------------------------------------------------------------------------*/
FoamFile
{
    version     2.0;
    format      ascii;
    class       surfaceScalarField;
    location    "0.09";
    object      rhoPhi;
}
// * * * * * * * * * * * * * * * * * * * * * * * * * * * * * * * * * * * * * //

dimensions      [1 0 -1 0 0 0 0];

internalField   nonuniform List<scalar> 
54
(
6.457395347e-08
-4.004393597e-08
2.908840105e-05
-6.457190229e-08
-3.861202196e-08
2.966097568e-05
-4.004409703e-08
2.908840116e-05
6.507310118e-08
-1.604548332e-07
2.950817177e-05
-6.507224229e-08
-1.596884007e-07
3.008244647e-05
-1.604552398e-07
2.950816927e-05
6.525781217e-08
2.880945101e-05
-6.525570949e-08
2.938934749e-05
2.88094485e-05
5.79262866e-08
-1.61260227e-07
2.786447304e-05
-5.792781387e-08
-1.579004145e-07
2.857481951e-05
-1.612591166e-07
2.786447048e-05
5.83567429e-08
-2.676730062e-07
2.820701152e-05
-5.835462019e-08
-2.650772583e-07
2.892379182e-05
-2.676725595e-07
2.820701011e-05
5.844503788e-08
2.717583007e-05
-5.844438889e-08
2.790060124e-05
2.71758295e-05
3.915553758e-08
-4.363137149e-07
-3.915474764e-08
-4.284672255e-07
-4.363146799e-07
3.881488587e-08
-5.170250656e-07
-3.881458442e-08
-5.097259522e-07
-5.170252742e-07
3.811706429e-08
-3.811671516e-08
)
;

boundaryField
{
    inlet
    {
        type            calculated;
        value           nonuniform 0();
    }
    outlet
    {
        type            calculated;
        value           nonuniform List<scalar> 9(2.781346601e-05 2.779424556e-05 2.618362719e-05 2.862099162e-05 2.861535983e-05 2.70173995e-05 2.781346608e-05 2.779424356e-05 2.618362552e-05);
    }
    walls
    {
        type            calculated;
        value           uniform 0;
    }
    procBoundary1to0
    {
        type            processor;
        value           nonuniform List<scalar> 9(-3.120067332e-05 -3.16234377e-05 -3.120066928e-05 -3.15764239e-05 -3.199873846e-05 -3.157642367e-05 -3.111068749e-05 -3.153684129e-05 -3.1110688e-05);
    }
}


// ************************************************************************* //
