/*--------------------------------*- C++ -*----------------------------------*\
  =========                 |
  \\      /  F ield         | OpenFOAM: The Open Source CFD Toolbox
   \\    /   O peration     | Website:  https://openfoam.org
    \\  /    A nd           | Version:  7
     \\/     M anipulation  |
\*---------------------------------------------------------------------------*/
FoamFile
{
    version     2.0;
    format      ascii;
    class       volScalarField::Internal;
    location    "0.09";
    object      steelCloud:hsCoeff;
}
// * * * * * * * * * * * * * * * * * * * * * * * * * * * * * * * * * * * * * //

dimensions      [1 2 -2 -1 0 0 0];

value           nonuniform List<scalar> 
27
(
4.334054589e-06
4.338765928e-06
4.334054589e-06
4.338765928e-06
4.343888157e-06
4.338765928e-06
4.334054589e-06
4.338765928e-06
4.334054589e-06
3.431064169e-06
3.433071166e-06
3.431064169e-06
3.433071166e-06
3.435196029e-06
3.433071167e-06
3.431064169e-06
3.433071167e-06
3.43106417e-06
2.925993215e-06
2.926914035e-06
2.925993215e-06
2.926914035e-06
2.927869349e-06
2.926914035e-06
2.925993215e-06
2.926914035e-06
2.925993215e-06
)
;


// ************************************************************************* //
