/*--------------------------------*- C++ -*----------------------------------*\
  =========                 |
  \\      /  F ield         | OpenFOAM: The Open Source CFD Toolbox
   \\    /   O peration     | Website:  https://openfoam.org
    \\  /    A nd           | Version:  7
     \\/     M anipulation  |
\*---------------------------------------------------------------------------*/
FoamFile
{
    version     2.0;
    format      ascii;
    class       volVectorField::Internal;
    location    "0.09";
    object      steelCloud:UTrans;
}
// * * * * * * * * * * * * * * * * * * * * * * * * * * * * * * * * * * * * * //

dimensions      [1 1 -1 0 0 0 0];

value           nonuniform List<vector> 
27
(
(-4.048035135e-08 -2.060247865e-15 -1.85699427e-10)
(-4.052435556e-08 -2.062487459e-15 -1.859012917e-10)
(-4.048035135e-08 -2.060247865e-15 -1.85699427e-10)
(-4.052435556e-08 -2.062487459e-15 -1.859012917e-10)
(-4.057219751e-08 -2.064922376e-15 -1.861207617e-10)
(-4.052435556e-08 -2.062487459e-15 -1.859012917e-10)
(-4.048035135e-08 -2.060247865e-15 -1.85699427e-10)
(-4.052435556e-08 -2.062487459e-15 -1.859012917e-10)
(-4.048035135e-08 -2.060247865e-15 -1.85699427e-10)
(-3.204636218e-08 -1.630999906e-15 -1.470093736e-10)
(-3.206510767e-08 -1.631953958e-15 -1.470953665e-10)
(-3.204636218e-08 -1.630999906e-15 -1.470093736e-10)
(-3.206510767e-08 -1.631953958e-15 -1.470953665e-10)
(-3.208495402e-08 -1.632964038e-15 -1.471864096e-10)
(-3.206510767e-08 -1.631953958e-15 -1.470953665e-10)
(-3.204636218e-08 -1.630999906e-15 -1.470093736e-10)
(-3.206510767e-08 -1.631953958e-15 -1.470953665e-10)
(-3.204636218e-08 -1.630999906e-15 -1.470093736e-10)
(-2.732896667e-08 -1.390908017e-15 -1.253688093e-10)
(-2.733756718e-08 -1.39134574e-15 -1.254082633e-10)
(-2.732896667e-08 -1.390908017e-15 -1.253688093e-10)
(-2.733756718e-08 -1.39134574e-15 -1.254082633e-10)
(-2.734648988e-08 -1.391799861e-15 -1.254491952e-10)
(-2.733756718e-08 -1.39134574e-15 -1.254082633e-10)
(-2.732896667e-08 -1.390908017e-15 -1.253688093e-10)
(-2.733756718e-08 -1.39134574e-15 -1.254082633e-10)
(-2.732896667e-08 -1.390908017e-15 -1.253688093e-10)
)
;


// ************************************************************************* //
