/*--------------------------------*- C++ -*----------------------------------*\
  =========                 |
  \\      /  F ield         | OpenFOAM: The Open Source CFD Toolbox
   \\    /   O peration     | Website:  https://openfoam.org
    \\  /    A nd           | Version:  7
     \\/     M anipulation  |
\*---------------------------------------------------------------------------*/
FoamFile
{
    version     2.0;
    format      ascii;
    class       volScalarField::Internal;
    location    "0.09";
    object      steelCloud:UCoeff;
}
// * * * * * * * * * * * * * * * * * * * * * * * * * * * * * * * * * * * * * //

dimensions      [1 0 0 0 0 0 0];

value           nonuniform List<scalar> 
27
(
2.22064292e-08
2.223056872e-08
2.22064292e-08
2.223056872e-08
2.225681352e-08
2.223056872e-08
2.22064292e-08
2.223056872e-08
2.22064292e-08
1.757977016e-08
1.759005343e-08
1.757977016e-08
1.759005343e-08
1.76009406e-08
1.759005343e-08
1.757977016e-08
1.759005343e-08
1.757977016e-08
1.499193419e-08
1.49966522e-08
1.499193419e-08
1.49966522e-08
1.500154695e-08
1.49966522e-08
1.499193419e-08
1.49966522e-08
1.499193419e-08
)
;


// ************************************************************************* //
