/*--------------------------------*- C++ -*----------------------------------*\
  =========                 |
  \\      /  F ield         | OpenFOAM: The Open Source CFD Toolbox
   \\    /   O peration     | Website:  https://openfoam.org
    \\  /    A nd           | Version:  7
     \\/     M anipulation  |
\*---------------------------------------------------------------------------*/
FoamFile
{
    version     2.0;
    format      ascii;
    class       volScalarField;
    location    "0.09";
    object      T;
}
// * * * * * * * * * * * * * * * * * * * * * * * * * * * * * * * * * * * * * //

dimensions      [0 0 0 1 0 0 0];

internalField   nonuniform List<scalar> 
27
(
304.8046319
304.7817643
304.8046313
304.7829192
304.7624525
304.7829186
304.8070087
304.7838152
304.8070081
305.8304258
305.7892322
305.8304243
305.7960704
305.7576368
305.7960689
305.8429722
305.8008266
305.8429706
306.6981336
306.6367647
306.6981315
306.6563815
306.5977718
306.6563794
306.7331319
306.6692869
306.7331298
)
;

boundaryField
{
    inlet
    {
        type            fixedValue;
        value           nonuniform 0();
    }
    outlet
    {
        type            zeroGradient;
    }
    walls
    {
        type            zeroGradient;
    }
    procBoundary1to0
    {
        type            processor;
        value           nonuniform List<scalar> 9(303.5095677 303.5016366 303.5095678 303.5008128 303.4948054 303.5008129 303.5081395 303.5001119 303.5081396);
    }
}


// ************************************************************************* //
