/*--------------------------------*- C++ -*----------------------------------*\
  =========                 |
  \\      /  F ield         | OpenFOAM: The Open Source CFD Toolbox
   \\    /   O peration     | Website:  https://openfoam.org
    \\  /    A nd           | Version:  7
     \\/     M anipulation  |
\*---------------------------------------------------------------------------*/
FoamFile
{
    version     2.0;
    format      ascii;
    class       volVectorField;
    location    "0.09";
    object      U;
}
// * * * * * * * * * * * * * * * * * * * * * * * * * * * * * * * * * * * * * //

dimensions      [0 1 -1 0 0 0 0];

internalField   nonuniform List<vector> 
27
(
(1.657808819 0.005069064488 -0.0318993918)
(1.684398706 9.746035643e-08 -0.03192398128)
(1.657808654 -0.005069010084 -0.03189946054)
(1.679806731 0.005052176588 0.01700011992)
(1.706419571 3.717805637e-08 0.01725614321)
(1.679806645 -0.005052183455 0.01700007973)
(1.64922415 0.004938999537 -0.04276759387)
(1.676067471 7.821247327e-08 -0.04289536535)
(1.649224119 -0.00493896471 -0.04276756403)
(1.550740961 0.005438047538 -0.04377565695)
(1.585437031 -6.794738082e-08 -0.04373971058)
(1.550740839 -0.005438116664 -0.04377552094)
(1.572889272 0.005381255683 0.01645302602)
(1.607770593 8.063558255e-08 0.01692323413)
(1.572889189 -0.005381178097 0.01645309751)
(1.527321754 0.005185721319 -0.05529942402)
(1.56255477 2.720576719e-08 -0.05541153424)
(1.527321646 -0.0051856953 -0.05529948812)
(1.505387936 0.005104029363 -0.06016974724)
(1.548452075 1.019037343e-09 -0.06002379599)
(1.505387912 -0.005103950942 -0.06016977161)
(1.511411714 0.004984394262 0.00628569315)
(1.555152965 -1.247792776e-08 0.007151906769)
(1.511411587 -0.004984329724 0.006285650316)
(1.4335228 0.004715284041 -0.07180054264)
(1.477909333 -1.688349777e-08 -0.07179309154)
(1.433522721 -0.004715218169 -0.07180055967)
)
;

boundaryField
{
    inlet
    {
        type            interstitialInletVelocity;
        inletVelocity   nonuniform 0();
        value           nonuniform 0();
    }
    outlet
    {
        type            pressureInletOutletVelocity;
        phi             alphaRhoPhi;
        value           nonuniform List<vector> 9((1.505387936 0.005104029363 -0.06016974724) (1.511411714 0.004984394262 0.00628569315) (1.4335228 0.004715284041 -0.07180054264) (1.548452075 1.019037343e-09 -0.06002379599) (1.555152965 -1.247792776e-08 0.007151906769) (1.477909333 -1.688349777e-08 -0.07179309154) (1.505387912 -0.005103950942 -0.06016977161) (1.511411587 -0.004984329724 0.006285650316) (1.433522721 -0.004715218169 -0.07180055967));
    }
    walls
    {
        type            noSlip;
    }
    procBoundary1to0
    {
        type            processor;
        value           nonuniform List<vector> 9((1.779388935 0.004184746928 -0.02278499135) (1.797953302 5.201972179e-08 -0.02283018626) (1.779388917 -0.004184750238 -0.02278495633) (1.797181505 0.004174771451 0.01332831107) (1.815720345 9.755436921e-08 0.01346207345) (1.797181411 -0.004174729591 0.01332826702) (1.777780668 0.004116456726 -0.03173873952) (1.796461167 2.142972523e-08 -0.03183645738) (1.777780635 -0.004116490688 -0.03173881949));
    }
}


// ************************************************************************* //
