/*--------------------------------*- C++ -*----------------------------------*\
  =========                 |
  \\      /  F ield         | OpenFOAM: The Open Source CFD Toolbox
   \\    /   O peration     | Website:  https://openfoam.org
    \\  /    A nd           | Version:  7
     \\/     M anipulation  |
\*---------------------------------------------------------------------------*/
FoamFile
{
    version     2.0;
    format      ascii;
    class       surfaceScalarField;
    location    "0.085";
    object      alphaRhoPhi;
}
// * * * * * * * * * * * * * * * * * * * * * * * * * * * * * * * * * * * * * //

dimensions      [1 0 -1 0 0 0 0];

internalField   nonuniform List<scalar> 
54
(
4.953782436e-08
-3.072656287e-08
2.302569832e-05
-4.953615588e-08
-2.96181795e-08
2.347355086e-05
-3.072667487e-08
2.302569866e-05
4.990360581e-08
-1.231001768e-07
2.335261998e-05
-4.990281343e-08
-1.224704427e-07
2.380120961e-05
-1.231004924e-07
2.335261828e-05
5.006229184e-08
2.280487928e-05
-5.006057065e-08
2.32585744e-05
2.280487756e-05
4.724793437e-08
-1.315541564e-07
2.310999154e-05
-4.724916633e-08
-1.287968543e-07
2.369683318e-05
-1.315532294e-07
2.310998964e-05
4.75926525e-08
-2.183520483e-07
2.339181371e-05
-4.759079129e-08
-2.162063679e-07
2.398378644e-05
-2.183517153e-07
2.3391813e-05
4.767083548e-08
2.253884337e-05
-4.767026597e-08
2.313769611e-05
2.253884317e-05
3.29976335e-08
-3.677741483e-07
-3.299714196e-08
-3.611416409e-07
-3.677749319e-07
3.270895487e-08
-4.357952792e-07
-3.27086172e-08
-4.296205811e-07
-4.357954982e-07
3.212284415e-08
-3.212264917e-08
)
;

boundaryField
{
    inlet
    {
        type            calculated;
        value           nonuniform 0();
    }
    outlet
    {
        type            calculated;
        value           nonuniform List<scalar> 9(2.344477845e-05 2.342713455e-05 2.207093662e-05 2.412397799e-05 2.411769071e-05 2.277232947e-05 2.344477851e-05 2.342713347e-05 2.207093533e-05);
    }
    walls
    {
        type            calculated;
        value           uniform 0;
    }
    procBoundary1to0
    {
        type            processor;
        value           nonuniform List<scalar> 9(-2.304453187e-05 -2.334488826e-05 -2.304452907e-05 -2.331017888e-05 -2.360857051e-05 -2.331017883e-05 -2.297806174e-05 -2.328095324e-05 -2.297806226e-05);
    }
}


// ************************************************************************* //
