/*--------------------------------*- C++ -*----------------------------------*\
  =========                 |
  \\      /  F ield         | OpenFOAM: The Open Source CFD Toolbox
   \\    /   O peration     | Website:  https://openfoam.org
    \\  /    A nd           | Version:  7
     \\/     M anipulation  |
\*---------------------------------------------------------------------------*/
FoamFile
{
    version     2.0;
    format      ascii;
    class       volScalarField;
    location    "0.085";
    object      pDyn;
}
// * * * * * * * * * * * * * * * * * * * * * * * * * * * * * * * * * * * * * //

dimensions      [1 -1 -2 0 0 0 0];

internalField   nonuniform List<scalar> 
27
(
1.585125893
1.636462373
1.585125663
1.62714125
1.67919441
1.627141152
1.569209304
1.620778165
1.569209317
1.382923391
1.445611028
1.382923249
1.421877185
1.485799439
1.421877152
1.342099545
1.404823343
1.342099452
1.300571931
1.37615554
1.300571848
1.30909232
1.386195337
1.309092265
1.180296729
1.25455972
1.180296601
)
;

boundaryField
{
    inlet
    {
        type            calculated;
        value           nonuniform 0();
    }
    outlet
    {
        type            calculated;
        value           nonuniform List<scalar> 9(1.300569434 1.3090902 1.180295217 1.376152882 1.386193078 1.254558104 1.300569351 1.309090145 1.18029509);
    }
    walls
    {
        type            calculated;
        value           uniform 0;
    }
    procBoundary1to0
    {
        type            processor;
        value           nonuniform List<scalar> 9(1.833562692 1.872048417 1.833562695 1.870256174 1.909060958 1.870256006 1.830537284 1.869233231 1.830537255);
    }
}


// ************************************************************************* //
