/*--------------------------------*- C++ -*----------------------------------*\
  =========                 |
  \\      /  F ield         | OpenFOAM: The Open Source CFD Toolbox
   \\    /   O peration     | Website:  https://openfoam.org
    \\  /    A nd           | Version:  7
     \\/     M anipulation  |
\*---------------------------------------------------------------------------*/
FoamFile
{
    version     2.0;
    format      ascii;
    class       volScalarField::Internal;
    location    "0.085";
    object      steelCloud:hsCoeff;
}
// * * * * * * * * * * * * * * * * * * * * * * * * * * * * * * * * * * * * * //

dimensions      [1 2 -2 -1 0 0 0];

value           nonuniform List<scalar> 
27
(
4.334077057e-06
4.338788419e-06
4.334077057e-06
4.338788419e-06
4.343910675e-06
4.338788419e-06
4.334077057e-06
4.338788419e-06
4.334077057e-06
3.431081956e-06
3.433088963e-06
3.431081956e-06
3.433088963e-06
3.435213837e-06
3.433088963e-06
3.431081956e-06
3.433088963e-06
3.431081956e-06
2.926008383e-06
2.926929208e-06
2.926008383e-06
2.926929208e-06
2.927884526e-06
2.926929208e-06
2.926008383e-06
2.926929208e-06
2.926008383e-06
)
;


// ************************************************************************* //
