/*--------------------------------*- C++ -*----------------------------------*\
  =========                 |
  \\      /  F ield         | OpenFOAM: The Open Source CFD Toolbox
   \\    /   O peration     | Website:  https://openfoam.org
    \\  /    A nd           | Version:  7
     \\/     M anipulation  |
\*---------------------------------------------------------------------------*/
FoamFile
{
    version     2.0;
    format      ascii;
    class       volVectorField::Internal;
    location    "0.085";
    object      steelCloud:UTrans;
}
// * * * * * * * * * * * * * * * * * * * * * * * * * * * * * * * * * * * * * //

dimensions      [1 1 -1 0 0 0 0];

value           nonuniform List<vector> 
27
(
(-4.04903678e-08 -2.002401221e-15 -1.857407338e-10)
(-4.053438289e-08 -2.004577933e-15 -1.859426435e-10)
(-4.04903678e-08 -2.002401221e-15 -1.857407338e-10)
(-4.053438289e-08 -2.004577933e-15 -1.859426435e-10)
(-4.058223668e-08 -2.006944483e-15 -1.861621623e-10)
(-4.053438289e-08 -2.004577933e-15 -1.859426435e-10)
(-4.04903678e-08 -2.002401221e-15 -1.857407338e-10)
(-4.053438289e-08 -2.004577933e-15 -1.859426435e-10)
(-4.04903678e-08 -2.002401221e-15 -1.857407338e-10)
(-3.205429173e-08 -1.585205479e-15 -1.470420742e-10)
(-3.207304185e-08 -1.586132743e-15 -1.471280863e-10)
(-3.205429173e-08 -1.585205479e-15 -1.470420742e-10)
(-3.207304185e-08 -1.586132743e-15 -1.471280863e-10)
(-3.209289311e-08 -1.587114463e-15 -1.472191497e-10)
(-3.207304185e-08 -1.586132743e-15 -1.471280863e-10)
(-3.205429173e-08 -1.585205479e-15 -1.470420742e-10)
(-3.207304185e-08 -1.586132743e-15 -1.471280863e-10)
(-3.205429173e-08 -1.585205479e-15 -1.470420742e-10)
(-2.733572894e-08 -1.351854774e-15 -1.253966963e-10)
(-2.734433158e-08 -1.352280207e-15 -1.25436159e-10)
(-2.733572894e-08 -1.351854774e-15 -1.253966963e-10)
(-2.734433158e-08 -1.352280207e-15 -1.25436159e-10)
(-2.735325648e-08 -1.352721577e-15 -1.254771001e-10)
(-2.734433158e-08 -1.352280207e-15 -1.25436159e-10)
(-2.733572894e-08 -1.351854774e-15 -1.253966963e-10)
(-2.734433158e-08 -1.352280207e-15 -1.25436159e-10)
(-2.733572894e-08 -1.351854774e-15 -1.253966963e-10)
)
;


// ************************************************************************* //
