/*--------------------------------*- C++ -*----------------------------------*\
  =========                 |
  \\      /  F ield         | OpenFOAM: The Open Source CFD Toolbox
   \\    /   O peration     | Website:  https://openfoam.org
    \\  /    A nd           | Version:  7
     \\/     M anipulation  |
\*---------------------------------------------------------------------------*/
FoamFile
{
    version     2.0;
    format      ascii;
    class       volScalarField::Internal;
    location    "0.085";
    object      steelCloud:hsTrans;
}
// * * * * * * * * * * * * * * * * * * * * * * * * * * * * * * * * * * * * * //

dimensions      [1 2 -2 0 0 0 0];

value           nonuniform List<scalar> 
27
(
0.0001510171687
0.000151181332
0.0001510171686
0.000151181332
0.0001513598126
0.000151181332
0.0001510171686
0.000151181332
0.0001510171687
0.0001195530849
0.0001196230174
0.0001195530849
0.0001196230174
0.0001196970567
0.0001196230174
0.0001195530849
0.0001196230174
0.0001195530849
0.0001019542329
0.0001019863182
0.0001019542329
0.0001019863182
0.0001020196055
0.0001019863182
0.0001019542329
0.0001019863182
0.0001019542329
)
;


// ************************************************************************* //
