/*--------------------------------*- C++ -*----------------------------------*\
  =========                 |
  \\      /  F ield         | OpenFOAM: The Open Source CFD Toolbox
   \\    /   O peration     | Website:  https://openfoam.org
    \\  /    A nd           | Version:  7
     \\/     M anipulation  |
\*---------------------------------------------------------------------------*/
FoamFile
{
    version     2.0;
    format      ascii;
    class       volScalarField::Internal;
    location    "0.085";
    object      steelCloud:UCoeff;
}
// * * * * * * * * * * * * * * * * * * * * * * * * * * * * * * * * * * * * * //

dimensions      [1 0 0 0 0 0 0];

value           nonuniform List<scalar> 
27
(
2.220906283e-08
2.223320521e-08
2.220906283e-08
2.223320521e-08
2.225945313e-08
2.223320521e-08
2.220906283e-08
2.223320521e-08
2.220906283e-08
1.758185508e-08
1.759213957e-08
1.758185508e-08
1.759213957e-08
1.760302804e-08
1.759213957e-08
1.758185508e-08
1.759213957e-08
1.758185509e-08
1.49937122e-08
1.499843077e-08
1.49937122e-08
1.499843077e-08
1.50033261e-08
1.499843077e-08
1.49937122e-08
1.499843077e-08
1.49937122e-08
)
;


// ************************************************************************* //
