/*--------------------------------*- C++ -*----------------------------------*\
  =========                 |
  \\      /  F ield         | OpenFOAM: The Open Source CFD Toolbox
   \\    /   O peration     | Website:  https://openfoam.org
    \\  /    A nd           | Version:  7
     \\/     M anipulation  |
\*---------------------------------------------------------------------------*/
FoamFile
{
    version     2.0;
    format      ascii;
    class       volVectorField;
    location    "0.085";
    object      U;
}
// * * * * * * * * * * * * * * * * * * * * * * * * * * * * * * * * * * * * * //

dimensions      [0 1 -1 0 0 0 0];

internalField   nonuniform List<vector> 
27
(
(1.657817584 0.005068567755 -0.03189987802)
(1.684405626 8.766105152e-08 -0.03192453179)
(1.657817435 -0.005068480802 -0.03189994465)
(1.679813412 0.005051670838 0.01700000246)
(1.706424271 2.905844994e-08 0.01725601399)
(1.679813338 -0.005051643238 0.01699996236)
(1.6492323 0.004938493777 -0.0427670493)
(1.676073692 6.900317658e-08 -0.0428948746)
(1.649232282 -0.004938425723 -0.04276702046)
(1.55074772 0.005437260774 -0.04377565683)
(1.585441133 -9.460208306e-08 -0.043739855)
(1.550747617 -0.005437274058 -0.04377551658)
(1.572893245 0.005380467342 0.01645226851)
(1.607771754 5.892993638e-08 0.01692244202)
(1.572893184 -0.005380328913 0.01645233933)
(1.527327938 0.005184933544 -0.05529793699)
(1.562558088 1.408165636e-09 -0.05541019416)
(1.52732785 -0.005184850243 -0.05529800515)
(1.5053954 0.0051029725 -0.06016857348)
(1.548455326 -5.469079308e-08 -0.06002292312)
(1.505395376 -0.005102807365 -0.06016858951)
(1.511415028 0.004983374478 0.006283643814)
(1.55515181 -5.620168289e-08 0.007149742395)
(1.511414938 -0.004983211053 0.006283601407)
(1.433529662 0.004714294673 -0.07179744095)
(1.477911376 -6.999935281e-08 -0.0717903577)
(1.43352959 -0.00471413681 -0.07179746848)
)
;

boundaryField
{
    inlet
    {
        type            interstitialInletVelocity;
        inletVelocity   nonuniform 0();
        value           nonuniform 0();
    }
    outlet
    {
        type            pressureInletOutletVelocity;
        phi             alphaRhoPhi;
        value           nonuniform List<vector> 9((1.5053954 0.0051029725 -0.06016857348) (1.511415028 0.004983374478 0.006283643814) (1.433529662 0.004714294673 -0.07179744095) (1.548455326 -5.469079308e-08 -0.06002292312) (1.55515181 -5.620168289e-08 0.007149742395) (1.477911376 -6.999935281e-08 -0.0717903577) (1.505395376 -0.005102807365 -0.06016858951) (1.511414938 -0.004983211053 0.006283601407) (1.43352959 -0.00471413681 -0.07179746848));
    }
    walls
    {
        type            noSlip;
    }
    procBoundary1to0
    {
        type            processor;
        value           nonuniform List<vector> 9((1.779396732 0.00418446898 -0.02278558844) (1.797959759 5.037777841e-08 -0.02283081884) (1.779396721 -0.004184455311 -0.02278555404) (1.797187757 0.004174479215 0.01332840619) (1.81572514 9.480860778e-08 0.01346216286) (1.797187668 -0.004174421235 0.0133283618) (1.777787997 0.00411617215 -0.03173870235) (1.796467129 1.944489389e-08 -0.03183643217) (1.77778797 -0.004116189456 -0.03173878156));
    }
}


// ************************************************************************* //
