/*--------------------------------*- C++ -*----------------------------------*\
  =========                 |
  \\      /  F ield         | OpenFOAM: The Open Source CFD Toolbox
   \\    /   O peration     | Website:  https://openfoam.org
    \\  /    A nd           | Version:  7
     \\/     M anipulation  |
\*---------------------------------------------------------------------------*/
FoamFile
{
    version     2.0;
    format      ascii;
    class       surfaceScalarField;
    location    "0.01";
    object      alphaRhoPhi;
}
// * * * * * * * * * * * * * * * * * * * * * * * * * * * * * * * * * * * * * //

dimensions      [1 0 -1 0 0 0 0];

internalField   nonuniform List<scalar> 
54
(
2.444304645e-08
1.236372381e-08
2.823008465e-05
-2.441398714e-08
1.095935898e-08
2.831526972e-05
1.251365475e-08
2.822997854e-05
2.374077754e-08
-3.639697843e-08
2.830238612e-05
-2.356579865e-08
-3.587332611e-08
2.838318373e-05
-3.632846972e-08
2.830264526e-05
2.495939534e-08
2.820552184e-05
-2.470885591e-08
2.829114797e-05
2.820584624e-05
2.274210179e-08
3.108230213e-09
3.269422527e-05
-2.257910224e-08
1.898019903e-09
3.285867812e-05
2.880882901e-09
3.269451433e-05
2.234710707e-08
-4.26718979e-08
3.282584363e-05
-2.268961195e-08
-4.30873664e-08
3.298488172e-05
-4.290724514e-08
3.282578704e-05
2.300597293e-08
3.262990509e-05
-2.331688237e-08
3.279445669e-05
3.262968042e-05
2.699335956e-08
1.733311247e-08
-2.731149492e-08
1.706788776e-08
1.752150316e-08
2.780813376e-08
-3.717401242e-08
-2.78793979e-08
-3.82656837e-08
-3.701725185e-08
2.773627593e-08
-2.770492218e-08
)
;

boundaryField
{
    inlet
    {
        type            calculated;
        value           nonuniform List<scalar> 9(-2.321396291e-05 -2.321394368e-05 -2.32139258e-05 -2.321396236e-05 -2.321394332e-05 -2.321392536e-05 -2.321396295e-05 -2.321394387e-05 -2.321392599e-05);
    }
    outlet
    {
        type            calculated;
        value           nonuniform 0();
    }
    walls
    {
        type            calculated;
        value           uniform 0;
    }
    procBoundary0to1
    {
        type            processor;
        value           nonuniform List<scalar> 9(3.640510959e-05 3.665720833e-05 3.640492e-05 3.661385251e-05 3.686415606e-05 3.661375373e-05 3.632025504e-05 3.657294629e-05 3.632021968e-05);
    }
}


// ************************************************************************* //
