/*--------------------------------*- C++ -*----------------------------------*\
  =========                 |
  \\      /  F ield         | OpenFOAM: The Open Source CFD Toolbox
   \\    /   O peration     | Website:  https://openfoam.org
    \\  /    A nd           | Version:  7
     \\/     M anipulation  |
\*---------------------------------------------------------------------------*/
FoamFile
{
    version     2.0;
    format      ascii;
    class       volScalarField;
    location    "0.01";
    object      cpavg;
}
// * * * * * * * * * * * * * * * * * * * * * * * * * * * * * * * * * * * * * //

dimensions      [0 2 -2 -1 0 0 0];

internalField   nonuniform List<scalar> 
27
(
1013.086487
1013.086487
1013.086487
1013.086487
1013.086487
1013.086487
1013.086487
1013.086487
1013.086487
1013.152129
1013.152129
1013.152129
1013.152129
1013.152129
1013.152129
1013.152129
1013.152129
1013.152129
1013.260942
1013.260942
1013.260942
1013.260942
1013.260942
1013.260942
1013.260942
1013.260942
1013.260942
)
;

boundaryField
{
    inlet
    {
        type            calculated;
        value           uniform 1011.338357;
    }
    outlet
    {
        type            calculated;
        value           nonuniform 0();
    }
    walls
    {
        type            calculated;
        value           nonuniform List<scalar> 
36
(
1012.22724
1012.914962
1013.361538
1012.227239
1012.914962
1013.361538
1012.22724
1012.914962
1013.361538
1012.22724
1012.914962
1013.361538
1012.227239
1012.914962
1013.361538
1012.22724
1012.914962
1013.361538
1012.22724
1012.227239
1012.22724
1012.914962
1012.914962
1012.914962
1013.361538
1013.361538
1013.361538
1012.22724
1012.227239
1012.22724
1012.914962
1012.914962
1012.914962
1013.361538
1013.361538
1013.361538
)
;
    }
    procBoundary0to1
    {
        type            processor;
        value           nonuniform List<scalar> 9(1013.379937 1013.379937 1013.379937 1013.379937 1013.379937 1013.379937 1013.379937 1013.379937 1013.379937);
    }
}


// ************************************************************************* //
