/*--------------------------------*- C++ -*----------------------------------*\
  =========                 |
  \\      /  F ield         | OpenFOAM: The Open Source CFD Toolbox
   \\    /   O peration     | Website:  https://openfoam.org
    \\  /    A nd           | Version:  7
     \\/     M anipulation  |
\*---------------------------------------------------------------------------*/
FoamFile
{
    version     2.0;
    format      ascii;
    class       volScalarField;
    location    "0.01";
    object      muavg;
}
// * * * * * * * * * * * * * * * * * * * * * * * * * * * * * * * * * * * * * //

dimensions      [1 -1 -1 0 0 0 0];

internalField   nonuniform List<scalar> 
27
(
1.974413944e-05
1.974413944e-05
1.974413944e-05
1.974413944e-05
1.974413944e-05
1.974413944e-05
1.974413944e-05
1.974413944e-05
1.974413944e-05
1.979037971e-05
1.979037971e-05
1.979037971e-05
1.979037971e-05
1.979037971e-05
1.979037971e-05
1.979037971e-05
1.979037971e-05
1.979037971e-05
1.986672758e-05
1.986672758e-05
1.986672758e-05
1.986672758e-05
1.986672758e-05
1.986672758e-05
1.986672758e-05
1.986672758e-05
1.986672758e-05
)
;

boundaryField
{
    inlet
    {
        type            calculated;
        value           uniform 1.835366622e-05;
    }
    outlet
    {
        type            calculated;
        value           nonuniform 0();
    }
    walls
    {
        type            calculated;
        value           nonuniform List<scalar> 
36
(
1.911991781e-05
1.963978368e-05
1.995157544e-05
1.911991754e-05
1.963978341e-05
1.995157522e-05
1.911991781e-05
1.963978368e-05
1.995157544e-05
1.911991781e-05
1.963978368e-05
1.995157545e-05
1.911991754e-05
1.963978342e-05
1.995157522e-05
1.911991781e-05
1.963978368e-05
1.995157545e-05
1.911991781e-05
1.911991754e-05
1.911991781e-05
1.963978368e-05
1.963978341e-05
1.963978368e-05
1.995157544e-05
1.995157522e-05
1.995157545e-05
1.911991781e-05
1.911991754e-05
1.911991781e-05
1.963978368e-05
1.963978341e-05
1.963978368e-05
1.995157544e-05
1.995157522e-05
1.995157545e-05
)
;
    }
    procBoundary0to1
    {
        type            processor;
        value           nonuniform List<scalar> 9(1.994981026e-05 1.994981026e-05 1.994981026e-05 1.994981026e-05 1.994981025e-05 1.994981025e-05 1.994981026e-05 1.994981025e-05 1.994981025e-05);
    }
}


// ************************************************************************* //
