/*--------------------------------*- C++ -*----------------------------------*\
  =========                 |
  \\      /  F ield         | OpenFOAM: The Open Source CFD Toolbox
   \\    /   O peration     | Website:  https://openfoam.org
    \\  /    A nd           | Version:  7
     \\/     M anipulation  |
\*---------------------------------------------------------------------------*/
FoamFile
{
    version     2.0;
    format      ascii;
    class       volScalarField;
    location    "0.01";
    object      p;
}
// * * * * * * * * * * * * * * * * * * * * * * * * * * * * * * * * * * * * * //

dimensions      [1 -1 -2 0 0 0 0];

internalField   nonuniform List<scalar> 
27
(
101341.3491
101341.3463
101341.349
101341.2653
101341.2628
101341.2653
101341.1879
101341.185
101341.1879
101337.894
101337.8907
101337.8939
101337.8125
101337.8092
101337.8124
101337.7381
101337.7346
101337.7379
101334.2489
101334.2443
101334.2487
101334.1732
101334.1684
101334.173
101334.1068
101334.102
101334.1067
)
;

boundaryField
{
    inlet
    {
        type            zeroGradient;
    }
    outlet
    {
        type            totalPressure;
        rho             rho;
        psi             none;
        gamma           1;
        p0              nonuniform 0();
        value           nonuniform 0();
    }
    walls
    {
        type            zeroGradient;
    }
    procBoundary0to1
    {
        type            processor;
        value           nonuniform List<scalar> 9(101331.2301 101331.2262 101331.23 101331.1635 101331.1595 101331.1634 101331.1045 101331.1005 101331.1044);
    }
}


// ************************************************************************* //
