/*--------------------------------*- C++ -*----------------------------------*\
  =========                 |
  \\      /  F ield         | OpenFOAM: The Open Source CFD Toolbox
   \\    /   O peration     | Website:  https://openfoam.org
    \\  /    A nd           | Version:  7
     \\/     M anipulation  |
\*---------------------------------------------------------------------------*/
FoamFile
{
    version     2.0;
    format      ascii;
    class       volScalarField;
    location    "0.01";
    object      pDyn;
}
// * * * * * * * * * * * * * * * * * * * * * * * * * * * * * * * * * * * * * //

dimensions      [1 -1 -2 0 0 0 0];

internalField   nonuniform List<scalar> 
27
(
0.8531772269
0.8600007782
0.8531729243
0.859794795
0.866705046
0.8597949313
0.8528958176
0.8597214962
0.852899547
0.8390340672
0.8500008676
0.8390394882
0.8494510349
0.8606384504
0.8494510583
0.8381116908
0.8490984946
0.8381082467
0.8180675345
0.8319146211
0.8180777534
0.8327372022
0.8469585113
0.8327358452
0.8198314773
0.8337639241
0.8198223113
)
;

boundaryField
{
    inlet
    {
        type            calculated;
        value           nonuniform List<scalar> 9(0.892144584 0.8921441199 0.8921437263 0.8921445488 0.8921440845 0.8921436909 0.892144584 0.8921441199 0.8921437263);
    }
    outlet
    {
        type            calculated;
        value           nonuniform 0();
    }
    walls
    {
        type            calculated;
        value           uniform 0;
    }
    procBoundary0to1
    {
        type            processor;
        value           nonuniform List<scalar> 9(0.8011244587 0.8165221086 0.801127056 0.8181384921 0.8340167541 0.8181384595 0.8045589853 0.8200716534 0.8045567642);
    }
}


// ************************************************************************* //
