/*--------------------------------*- C++ -*----------------------------------*\
  =========                 |
  \\      /  F ield         | OpenFOAM: The Open Source CFD Toolbox
   \\    /   O peration     | Website:  https://openfoam.org
    \\  /    A nd           | Version:  7
     \\/     M anipulation  |
\*---------------------------------------------------------------------------*/
FoamFile
{
    version     2.0;
    format      ascii;
    class       surfaceScalarField;
    location    "0.01";
    object      phi;
}
// * * * * * * * * * * * * * * * * * * * * * * * * * * * * * * * * * * * * * //

dimensions      [0 3 -1 0 0 0 0];

internalField   nonuniform List<scalar> 
54
(
3.351337529e-08
1.695166258e-08
3.843508452e-05
-3.347353262e-08
1.504401023e-08
3.859311715e-05
1.715722991e-08
3.843494049e-05
3.258919055e-08
-4.990323138e-08
3.857564179e-05
-3.234899523e-08
-4.924367368e-08
3.873389727e-05
-4.980929994e-08
3.85759946e-05
3.422138335e-08
3.840181325e-05
-3.387787306e-08
3.856040829e-05
3.840225401e-05
3.079924687e-08
4.209431732e-09
4.31478656e-05
-3.057849969e-08
2.573407484e-09
4.340079642e-05
3.901538543e-09
4.314824629e-05
3.029911212e-08
-5.779015639e-08
4.335752985e-05
-3.076349392e-08
-5.841970128e-08
4.360931439e-05
-5.81088835e-08
4.335745474e-05
3.115683288e-08
4.306319386e-05
-3.157789478e-08
4.331617484e-05
4.306289721e-05
3.479386615e-08
2.234202465e-08
-3.520393476e-08
2.201455533e-08
2.258485561e-08
3.586759077e-08
-4.791659411e-08
-3.595950886e-08
-4.935601254e-08
-4.771453344e-08
3.575155013e-08
-3.571113633e-08
)
;

boundaryField
{
    inlet
    {
        type            calculated;
        value           nonuniform List<scalar> 9(-3.102855299e-05 -3.106290004e-05 -3.102855299e-05 -3.106290004e-05 -3.11013218e-05 -3.106290004e-05 -3.102855299e-05 -3.106290004e-05 -3.102855299e-05);
    }
    outlet
    {
        type            calculated;
        value           nonuniform 0();
    }
    walls
    {
        type            calculated;
        value           uniform 0;
    }
    procBoundary0to1
    {
        type            processor;
        value           nonuniform List<scalar> 9(4.544850213e-05 4.578174561e-05 4.544826243e-05 4.572745284e-05 4.606136042e-05 4.572732917e-05 4.534229989e-05 4.567621936e-05 4.53422574e-05);
    }
}


// ************************************************************************* //
