/*--------------------------------*- C++ -*----------------------------------*\
  =========                 |
  \\      /  F ield         | OpenFOAM: The Open Source CFD Toolbox
   \\    /   O peration     | Website:  https://openfoam.org
    \\  /    A nd           | Version:  7
     \\/     M anipulation  |
\*---------------------------------------------------------------------------*/
FoamFile
{
    version     2.0;
    format      ascii;
    class       surfaceScalarField;
    location    "0.01";
    object      rhoPhi;
}
// * * * * * * * * * * * * * * * * * * * * * * * * * * * * * * * * * * * * * //

dimensions      [1 0 -1 0 0 0 0];

internalField   nonuniform List<scalar> 
54
(
3.855954792e-08
1.950409912e-08
4.360291037e-05
-3.851370609e-08
1.730893705e-08
4.378275162e-05
1.974061912e-08
4.360274648e-05
3.749558938e-08
-5.741718966e-08
4.376283024e-05
-3.72192321e-08
-5.665743268e-08
4.394283121e-05
-5.730911538e-08
4.376323093e-05
3.937410186e-08
4.356497176e-05
-3.897886933e-08
4.374545313e-05
4.356547281e-05
3.444447684e-08
4.707628371e-09
4.771280023e-05
-3.419760281e-08
2.878091355e-09
4.799566499e-05
4.363295235e-09
4.771322208e-05
3.388637577e-08
-6.462952336e-08
4.794770465e-05
-3.440573826e-08
-6.533618353e-08
4.822922059e-05
-6.498597295e-08
4.794762199e-05
3.484412783e-08
4.761893363e-05
-3.531502154e-08
4.790185872e-05
4.761860575e-05
3.80406053e-08
2.442682574e-08
-3.848894007e-08
2.407098047e-08
2.469231681e-08
3.921803647e-08
-5.23877708e-08
-3.931854086e-08
-5.396640392e-08
-5.216685474e-08
3.908756607e-08
-3.904338055e-08
)
;

boundaryField
{
    inlet
    {
        type            calculated;
        value           nonuniform List<scalar> 9(-3.660039015e-05 -3.664087459e-05 -3.660033165e-05 -3.664090408e-05 -3.668619519e-05 -3.664084568e-05 -3.660039021e-05 -3.664087489e-05 -3.660033194e-05);
    }
    outlet
    {
        type            calculated;
        value           nonuniform 0();
    }
    walls
    {
        type            calculated;
        value           uniform 0;
    }
    procBoundary0to1
    {
        type            processor;
        value           nonuniform List<scalar> 9(4.928997793e-05 4.965653883e-05 4.928972125e-05 4.959780822e-05 4.996509675e-05 4.959767441e-05 4.91750908e-05 4.954239589e-05 4.917504293e-05);
    }
}


// ************************************************************************* //
