/*--------------------------------*- C++ -*----------------------------------*\
  =========                 |
  \\      /  F ield         | OpenFOAM: The Open Source CFD Toolbox
   \\    /   O peration     | Website:  https://openfoam.org
    \\  /    A nd           | Version:  7
     \\/     M anipulation  |
\*---------------------------------------------------------------------------*/
FoamFile
{
    version     2.0;
    format      ascii;
    class       volVectorField::Internal;
    location    "0.01";
    object      steelCloud:UTrans;
}
// * * * * * * * * * * * * * * * * * * * * * * * * * * * * * * * * * * * * * //

dimensions      [1 1 -1 0 0 0 0];

value           nonuniform List<vector> 
27
(
(-3.099524283e-08 1.066344011e-14 -9.283588256e-11)
(-3.105467574e-08 1.06838871e-14 -9.301389399e-11)
(-3.099524283e-08 1.066344011e-14 -9.283588256e-11)
(-3.105467574e-08 1.06838871e-14 -9.301389399e-11)
(-3.112100384e-08 1.070670627e-14 -9.321255762e-11)
(-3.105467574e-08 1.06838871e-14 -9.301389399e-11)
(-3.099524283e-08 1.066344011e-14 -9.283588256e-11)
(-3.105467574e-08 1.06838871e-14 -9.301389399e-11)
(-3.099524283e-08 1.066344011e-14 -9.283588256e-11)
(-2.876113949e-08 9.894830964e-15 -8.614437327e-11)
(-2.882268315e-08 9.916004121e-15 -8.632870672e-11)
(-2.876113948e-08 9.894830964e-15 -8.614437327e-11)
(-2.882268315e-08 9.916004121e-15 -8.632870672e-11)
(-2.889371699e-08 9.940442229e-15 -8.654146483e-11)
(-2.882268315e-08 9.916004121e-15 -8.632870672e-11)
(-2.876113948e-08 9.894830964e-15 -8.614437327e-11)
(-2.882268315e-08 9.916004121e-15 -8.632870672e-11)
(-2.876113949e-08 9.894830964e-15 -8.614437327e-11)
(-2.458953231e-08 8.459653201e-15 -7.364971931e-11)
(-2.463172098e-08 8.474167568e-15 -7.377608135e-11)
(-2.458953231e-08 8.459653201e-15 -7.364971931e-11)
(-2.463172098e-08 8.474167568e-15 -7.377608135e-11)
(-2.467909248e-08 8.490465009e-15 -7.391796683e-11)
(-2.463172098e-08 8.474167568e-15 -7.377608135e-11)
(-2.458953231e-08 8.459653201e-15 -7.364971931e-11)
(-2.463172098e-08 8.474167568e-15 -7.377608135e-11)
(-2.458953231e-08 8.459653202e-15 -7.364971931e-11)
)
;


// ************************************************************************* //
