/*--------------------------------*- C++ -*----------------------------------*\
  =========                 |
  \\      /  F ield         | OpenFOAM: The Open Source CFD Toolbox
   \\    /   O peration     | Website:  https://openfoam.org
    \\  /    A nd           | Version:  7
     \\/     M anipulation  |
\*---------------------------------------------------------------------------*/
FoamFile
{
    version     2.0;
    format      ascii;
    class       volScalarField::Internal;
    location    "0.01";
    object      steelCloud:hsCoeff;
}
// * * * * * * * * * * * * * * * * * * * * * * * * * * * * * * * * * * * * * //

dimensions      [1 2 -2 -1 0 0 0];

value           nonuniform List<scalar> 
27
(
6.955762551e-06
6.969100122e-06
6.955762551e-06
6.969100122e-06
6.983985068e-06
6.969100122e-06
6.955762551e-06
6.969100122e-06
6.955762551e-06
6.454398763e-06
6.468210014e-06
6.454398763e-06
6.468210014e-06
6.484150993e-06
6.468210014e-06
6.454398763e-06
6.468210014e-06
6.454398763e-06
5.518232232e-06
5.527699954e-06
5.518232232e-06
5.527699954e-06
5.538330776e-06
5.527699954e-06
5.518232232e-06
5.527699954e-06
5.518232232e-06
)
;


// ************************************************************************* //
