/*--------------------------------*- C++ -*----------------------------------*\
  =========                 |
  \\      /  F ield         | OpenFOAM: The Open Source CFD Toolbox
   \\    /   O peration     | Website:  https://openfoam.org
    \\  /    A nd           | Version:  7
     \\/     M anipulation  |
\*---------------------------------------------------------------------------*/
FoamFile
{
    version     2.0;
    format      ascii;
    class       volScalarField::Internal;
    location    "0.01";
    object      steelCloud:hsTrans;
}
// * * * * * * * * * * * * * * * * * * * * * * * * * * * * * * * * * * * * * //

dimensions      [1 2 -2 0 0 0 0];

value           nonuniform List<scalar> 
27
(
-4.22330669e-19
-4.231404818e-19
-4.22330669e-19
-4.231404818e-19
-4.240442459e-19
-4.231404818e-19
-4.22330669e-19
-4.231404818e-19
-4.22330669e-19
-3.918895344e-19
-3.927281074e-19
-3.918895344e-19
-3.927281074e-19
-3.936959905e-19
-3.927281074e-19
-3.918895344e-19
-3.927281074e-19
-3.918895344e-19
-3.350486295e-19
-3.35623478e-19
-3.350486295e-19
-3.35623478e-19
-3.36268946e-19
-3.35623478e-19
-3.350486295e-19
-3.35623478e-19
-3.350486295e-19
)
;


// ************************************************************************* //
