/*--------------------------------*- C++ -*----------------------------------*\
  =========                 |
  \\      /  F ield         | OpenFOAM: The Open Source CFD Toolbox
   \\    /   O peration     | Website:  https://openfoam.org
    \\  /    A nd           | Version:  7
     \\/     M anipulation  |
\*---------------------------------------------------------------------------*/
FoamFile
{
    version     2.0;
    format      ascii;
    class       volScalarField;
    location    "0.01";
    object      Tavg;
}
// * * * * * * * * * * * * * * * * * * * * * * * * * * * * * * * * * * * * * //

dimensions      [0 0 0 1 0 0 0];

internalField   nonuniform List<scalar> 
27
(
324.6390455
324.6390455
324.6390455
324.6390455
324.6390455
324.6390455
324.6390455
324.6390455
324.6390455
325.5391325
325.5391325
325.5391325
325.5391325
325.5391325
325.5391325
325.5391325
325.5391325
325.5391325
327.0260757
327.0260757
327.0260757
327.0260757
327.0260757
327.0260757
327.0260757
327.0260757
327.0260757
)
;

boundaryField
{
    inlet
    {
        type            fixedValue;
        value           uniform 298;
    }
    outlet
    {
        type            zeroGradient;
    }
    walls
    {
        type            zeroGradient;
    }
    procBoundary0to1
    {
        type            processor;
        value           nonuniform List<scalar> 9(328.6452622 328.6452622 328.6452622 328.6452622 328.6452622 328.6452622 328.6452622 328.6452622 328.6452622);
    }
}


// ************************************************************************* //
