/*--------------------------------*- C++ -*----------------------------------*\
  =========                 |
  \\      /  F ield         | OpenFOAM: The Open Source CFD Toolbox
   \\    /   O peration     | Website:  https://openfoam.org
    \\  /    A nd           | Version:  7
     \\/     M anipulation  |
\*---------------------------------------------------------------------------*/
FoamFile
{
    version     2.0;
    format      ascii;
    class       volVectorField;
    location    "0.01";
    object      Uavg;
}
// * * * * * * * * * * * * * * * * * * * * * * * * * * * * * * * * * * * * * //

dimensions      [0 1 -1 0 0 0 0];

internalField   nonuniform List<vector> 
27
(
(0.9041849715 2.28328745e-05 -0.008994918511)
(0.9041877477 6.807344362e-08 -0.008994953443)
(0.9041849748 -2.26969586e-05 -0.00899495836)
(0.9041647655 2.282646018e-05 -0.0090117806)
(0.9041675429 4.835382185e-08 -0.009011815159)
(0.904164768 -2.272981746e-05 -0.009011819821)
(0.904139009 2.281764642e-05 -0.009040542546)
(0.9041417854 2.885290006e-08 -0.009040579302)
(0.9041390107 -2.275985169e-05 -0.009040580818)
(0.8910236339 2.050623232e-05 -0.009720366309)
(0.8910263875 5.672140456e-08 -0.009720403354)
(0.8910236383 -2.039309293e-05 -0.009720404912)
(0.8909923721 2.050345673e-05 -0.009735038495)
(0.8909951267 3.755959071e-08 -0.009735074989)
(0.8909923747 -2.042841131e-05 -0.009735076595)
(0.8909556058 2.049849599e-05 -0.009761350707)
(0.8909583588 1.862189767e-08 -0.009761389425)
(0.8909556067 -2.046111352e-05 -0.009761387861)
(0.8771635477 1.70978602e-05 -0.01116111865)
(0.8771663272 3.239075558e-08 -0.01116116153)
(0.8771635518 -1.703328729e-05 -0.01116115014)
(0.8771077348 1.71058142e-05 -0.01117264808)
(0.8771105149 1.670012065e-08 -0.01117269043)
(0.8771077374 -1.707245933e-05 -0.01117267934)
(0.8770463664 1.711202578e-05 -0.01119531295)
(0.8770491447 1.128183944e-09 -0.01119535728)
(0.8770463676 -1.710965964e-05 -0.01119534366)
)
;

boundaryField
{
    inlet
    {
        type            interstitialInletVelocity;
        inletVelocity   uniform (1.23 0 0);
        value           uniform (1.23 0 0);
    }
    outlet
    {
        type            pressureInletOutletVelocity;
        phi             alphaRhoPhi;
        value           nonuniform 0();
    }
    walls
    {
        type            noSlip;
    }
    procBoundary0to1
    {
        type            processor;
        value           nonuniform List<vector> 9((0.8767686127 1.394681377e-05 -0.01315740348) (0.8767721627 1.516519411e-09 -0.01315746548) (0.8767686145 -1.394382332e-05 -0.01315742492) (0.8766729572 1.397393187e-05 -0.0131648208) (0.8766765086 -9.270099484e-09 -0.01316488169) (0.8766729597 -1.399243972e-05 -0.01316484239) (0.876570207 1.399956697e-05 -0.01318533705) (0.8765737551 -2.007537561e-08 -0.01318540058) (0.8765702101 -1.403961065e-05 -0.01318535865));
    }
}


// ************************************************************************* //
