/*--------------------------------*- C++ -*----------------------------------*\
  =========                 |
  \\      /  F ield         | OpenFOAM: The Open Source CFD Toolbox
   \\    /   O peration     | Website:  https://openfoam.org
    \\  /    A nd           | Version:  7
     \\/     M anipulation  |
\*---------------------------------------------------------------------------*/
FoamFile
{
    version     2.0;
    format      ascii;
    class       surfaceScalarField;
    location    "0.04";
    object      alphaRhoPhi;
}
// * * * * * * * * * * * * * * * * * * * * * * * * * * * * * * * * * * * * * //

dimensions      [1 0 -1 0 0 0 0];

internalField   nonuniform List<scalar> 
54
(
4.90303409e-08
-3.19881996e-08
2.303727797e-05
-4.915273486e-08
-3.095799775e-08
2.348187681e-05
-3.194649193e-08
2.303705662e-05
4.948516304e-08
-1.239786355e-07
2.336010522e-05
-4.951408271e-08
-1.234773634e-07
2.380550275e-05
-1.239851881e-07
2.336011332e-05
4.95999449e-08
2.281259218e-05
-4.967913274e-08
2.326280627e-05
2.281245312e-05
4.664082644e-08
-1.321356098e-07
2.311072459e-05
-4.670749339e-08
-1.297465283e-07
2.369342946e-05
-1.321280437e-07
2.31104252e-05
4.706424489e-08
-2.186147184e-07
2.338786881e-05
-4.708960638e-08
-2.169256131e-07
2.397568497e-05
-2.186275773e-07
2.338787125e-05
4.712370032e-08
2.253459121e-05
-4.718906567e-08
2.312844535e-05
2.253437353e-05
3.199374284e-08
-3.660076142e-07
-3.202282229e-08
-3.603930885e-07
-3.659968202e-07
3.19230444e-08
-4.325189703e-07
-3.190081422e-08
-4.275111817e-07
-4.325309489e-07
3.148447755e-08
-3.149858874e-08
)
;

boundaryField
{
    inlet
    {
        type            calculated;
        value           nonuniform 0();
    }
    outlet
    {
        type            calculated;
        value           nonuniform List<scalar> 9(2.341643815e-05 2.339477452e-05 2.204170913e-05 2.409046347e-05 2.407986555e-05 2.27359789e-05 2.341609752e-05 2.339482208e-05 2.204146412e-05);
    }
    walls
    {
        type            calculated;
        value           uniform 0;
    }
    procBoundary1to0
    {
        type            processor;
        value           nonuniform List<scalar> 9(-2.30555451e-05 -2.33537588e-05 -2.305548596e-05 -2.331865744e-05 -2.361484765e-05 -2.331865107e-05 -2.29874583e-05 -2.328809681e-05 -2.298740628e-05);
    }
}


// ************************************************************************* //
