/*--------------------------------*- C++ -*----------------------------------*\
  =========                 |
  \\      /  F ield         | OpenFOAM: The Open Source CFD Toolbox
   \\    /   O peration     | Website:  https://openfoam.org
    \\  /    A nd           | Version:  7
     \\/     M anipulation  |
\*---------------------------------------------------------------------------*/
FoamFile
{
    version     2.0;
    format      ascii;
    class       volScalarField;
    location    "0.04";
    object      cpavg;
}
// * * * * * * * * * * * * * * * * * * * * * * * * * * * * * * * * * * * * * //

dimensions      [0 2 -2 -1 0 0 0];

internalField   nonuniform List<scalar> 
27
(
1011.702594
1011.702593
1011.702594
1011.702608
1011.702606
1011.702608
1011.702624
1011.702623
1011.702624
1011.731924
1011.731922
1011.731924
1011.731944
1011.731942
1011.731944
1011.731968
1011.731966
1011.731968
1011.748953
1011.74895
1011.748953
1011.748977
1011.748974
1011.748977
1011.749006
1011.749003
1011.749006
)
;

boundaryField
{
    inlet
    {
        type            calculated;
        value           nonuniform 0();
    }
    outlet
    {
        type            calculated;
        value           nonuniform List<scalar> 9(1011.923567 1011.918674 1011.92827 1011.916126 1011.911464 1011.920536 1011.923576 1011.918675 1011.928277);
    }
    walls
    {
        type            calculated;
        value           nonuniform List<scalar> 
36
(
1011.731129
1011.82075
1011.923567
1011.729249
1011.816638
1011.916126
1011.731132
1011.820758
1011.923576
1011.731478
1011.822272
1011.92827
1011.729573
1011.818065
1011.920536
1011.731481
1011.822277
1011.928277
1011.731132
1011.729421
1011.731481
1011.820758
1011.817436
1011.822277
1011.923576
1011.918675
1011.928277
1011.731129
1011.729419
1011.731478
1011.82075
1011.817436
1011.822272
1011.923567
1011.918674
1011.92827
)
;
    }
    procBoundary1to0
    {
        type            processor;
        value           nonuniform List<scalar> 9(1011.66879 1011.668789 1011.66879 1011.668798 1011.668798 1011.668798 1011.668808 1011.668807 1011.668808);
    }
}


// ************************************************************************* //
