/*--------------------------------*- C++ -*----------------------------------*\
  =========                 |
  \\      /  F ield         | OpenFOAM: The Open Source CFD Toolbox
   \\    /   O peration     | Website:  https://openfoam.org
    \\  /    A nd           | Version:  7
     \\/     M anipulation  |
\*---------------------------------------------------------------------------*/
FoamFile
{
    version     2.0;
    format      ascii;
    class       volScalarField;
    location    "0.04";
    object      muavg;
}
// * * * * * * * * * * * * * * * * * * * * * * * * * * * * * * * * * * * * * //

dimensions      [1 -1 -1 0 0 0 0];

internalField   nonuniform List<scalar> 
27
(
1.868100161e-05
1.868100052e-05
1.868100166e-05
1.868101317e-05
1.868101209e-05
1.868101323e-05
1.868102691e-05
1.868102582e-05
1.868102696e-05
1.870663542e-05
1.870663373e-05
1.870663549e-05
1.870665208e-05
1.870665038e-05
1.870665215e-05
1.870667208e-05
1.870667038e-05
1.870667215e-05
1.872149343e-05
1.87214913e-05
1.872149352e-05
1.872151368e-05
1.872151154e-05
1.872151376e-05
1.872153814e-05
1.872153598e-05
1.872153822e-05
)
;

boundaryField
{
    inlet
    {
        type            calculated;
        value           nonuniform 0();
    }
    outlet
    {
        type            calculated;
        value           nonuniform List<scalar> 9(1.887190665e-05 1.886780473e-05 1.8875847e-05 1.886566661e-05 1.886175329e-05 1.886936642e-05 1.887191469e-05 1.886780488e-05 1.887585264e-05);
    }
    walls
    {
        type            calculated;
        value           nonuniform List<scalar> 
36
(
1.870782016e-05
1.878494793e-05
1.887190665e-05
1.870618801e-05
1.878143746e-05
1.886566661e-05
1.870782234e-05
1.878495554e-05
1.887191469e-05
1.87081223e-05
1.878624726e-05
1.8875847e-05
1.870646929e-05
1.878265594e-05
1.886936642e-05
1.870812488e-05
1.878625127e-05
1.887585264e-05
1.870782234e-05
1.870633717e-05
1.870812488e-05
1.878495554e-05
1.878211879e-05
1.878625127e-05
1.887191469e-05
1.886780488e-05
1.887585264e-05
1.870782016e-05
1.870633567e-05
1.87081223e-05
1.878494793e-05
1.87821184e-05
1.878624726e-05
1.887190665e-05
1.886780473e-05
1.8875847e-05
)
;
    }
    procBoundary1to0
    {
        type            processor;
        value           nonuniform List<scalar> 9(1.86513934e-05 1.865139283e-05 1.865139344e-05 1.865140044e-05 1.865139987e-05 1.865140047e-05 1.865140863e-05 1.865140805e-05 1.865140866e-05);
    }
}


// ************************************************************************* //
