/*--------------------------------*- C++ -*----------------------------------*\
  =========                 |
  \\      /  F ield         | OpenFOAM: The Open Source CFD Toolbox
   \\    /   O peration     | Website:  https://openfoam.org
    \\  /    A nd           | Version:  7
     \\/     M anipulation  |
\*---------------------------------------------------------------------------*/
FoamFile
{
    version     2.0;
    format      ascii;
    class       volScalarField;
    location    "0.04";
    object      p;
}
// * * * * * * * * * * * * * * * * * * * * * * * * * * * * * * * * * * * * * //

dimensions      [1 -1 -2 0 0 0 0];

internalField   nonuniform List<scalar> 
27
(
101325.8579
101325.8546
101325.8579
101325.7977
101325.7942
101325.7977
101325.7448
101325.7412
101325.7448
101325.5173
101325.516
101325.5173
101325.468
101325.4666
101325.468
101325.4205
101325.4187
101325.4205
101325.1943
101325.1955
101325.1943
101325.1638
101325.1649
101325.1638
101325.1297
101325.1304
101325.1297
)
;

boundaryField
{
    inlet
    {
        type            zeroGradient;
    }
    outlet
    {
        type            totalPressure;
        rho             rho;
        psi             none;
        gamma           1;
        p0              uniform 101325;
        value           uniform 101325;
    }
    walls
    {
        type            zeroGradient;
    }
    procBoundary1to0
    {
        type            processor;
        value           nonuniform List<scalar> 9(101326.4445 101326.4402 101326.4445 101326.3787 101326.3743 101326.3787 101326.323 101326.3184 101326.323);
    }
}


// ************************************************************************* //
