/*--------------------------------*- C++ -*----------------------------------*\
  =========                 |
  \\      /  F ield         | OpenFOAM: The Open Source CFD Toolbox
   \\    /   O peration     | Website:  https://openfoam.org
    \\  /    A nd           | Version:  7
     \\/     M anipulation  |
\*---------------------------------------------------------------------------*/
FoamFile
{
    version     2.0;
    format      ascii;
    class       volScalarField;
    location    "0.04";
    object      pDyn;
}
// * * * * * * * * * * * * * * * * * * * * * * * * * * * * * * * * * * * * * //

dimensions      [1 -1 -2 0 0 0 0];

internalField   nonuniform List<scalar> 
27
(
1.586950726
1.637723199
1.586911461
1.628188665
1.679679651
1.628184647
1.570323584
1.621300076
1.570292564
1.383977468
1.445952429
1.38393013
1.422066924
1.485261428
1.422063715
1.342221142
1.404133913
1.342186635
1.29597378
1.370316851
1.295919939
1.304184552
1.379974047
1.304199314
1.176515919
1.249255095
1.17648498
)
;

boundaryField
{
    inlet
    {
        type            calculated;
        value           nonuniform 0();
    }
    outlet
    {
        type            calculated;
        value           nonuniform List<scalar> 9(1.2959713 1.304182449 1.176514415 1.370314215 1.379971808 1.24925349 1.29591746 1.304197211 1.176483476);
    }
    walls
    {
        type            calculated;
        value           uniform 0;
    }
    procBoundary1to0
    {
        type            processor;
        value           nonuniform List<scalar> 9(1.834663979 1.872728059 1.834641907 1.870817339 1.909187327 1.870817194 1.831285886 1.869556566 1.831274754);
    }
}


// ************************************************************************* //
