/*--------------------------------*- C++ -*----------------------------------*\
  =========                 |
  \\      /  F ield         | OpenFOAM: The Open Source CFD Toolbox
   \\    /   O peration     | Website:  https://openfoam.org
    \\  /    A nd           | Version:  7
     \\/     M anipulation  |
\*---------------------------------------------------------------------------*/
FoamFile
{
    version     2.0;
    format      ascii;
    class       surfaceScalarField;
    location    "0.04";
    object      rhoPhi;
}
// * * * * * * * * * * * * * * * * * * * * * * * * * * * * * * * * * * * * * //

dimensions      [1 0 -1 0 0 0 0];

internalField   nonuniform List<scalar> 
54
(
6.390713528e-08
-4.169406456e-08
2.910305309e-05
-6.406666603e-08
-4.036516548e-08
2.967147535e-05
-4.163970195e-08
2.910277346e-05
6.452215713e-08
-1.615962542e-07
2.951760593e-05
-6.455986458e-08
-1.609982741e-07
3.008780137e-05
-1.61604795e-07
2.951761616e-05
6.464956862e-08
2.881920694e-05
-6.475278365e-08
2.939465991e-05
2.881903127e-05
5.717473814e-08
-1.619786669e-07
2.786540252e-05
-5.725646193e-08
-1.590716332e-07
2.857069718e-05
-1.61969392e-07
2.786504154e-05
5.770163098e-08
-2.679892324e-07
2.820223718e-05
-5.773272464e-08
-2.659547966e-07
2.891393723e-05
-2.680049955e-07
2.820224012e-05
5.776666992e-08
2.717073851e-05
-5.784679815e-08
2.788941167e-05
2.717047605e-05
3.795666826e-08
-4.342233312e-07
-3.799116747e-08
-4.275879275e-07
-4.342105254e-07
3.787505596e-08
-5.131309318e-07
-3.784868099e-08
-5.07220105e-07
-5.131451428e-07
3.735248719e-08
-3.73692284e-08
)
;

boundaryField
{
    inlet
    {
        type            calculated;
        value           nonuniform 0();
    }
    outlet
    {
        type            calculated;
        value           nonuniform List<scalar> 9(2.777992928e-05 2.775585647e-05 2.614902902e-05 2.858123063e-05 2.857039544e-05 2.6974253e-05 2.777952517e-05 2.775591289e-05 2.614873836e-05);
    }
    walls
    {
        type            calculated;
        value           uniform 0;
    }
    procBoundary1to0
    {
        type            processor;
        value           nonuniform List<scalar> 9(-3.121559918e-05 -3.16354377e-05 -3.121551911e-05 -3.158788875e-05 -3.200719272e-05 -3.158788012e-05 -3.112341442e-05 -3.154649075e-05 -3.112334398e-05);
    }
}


// ************************************************************************* //
