/*--------------------------------*- C++ -*----------------------------------*\
  =========                 |
  \\      /  F ield         | OpenFOAM: The Open Source CFD Toolbox
   \\    /   O peration     | Website:  https://openfoam.org
    \\  /    A nd           | Version:  7
     \\/     M anipulation  |
\*---------------------------------------------------------------------------*/
FoamFile
{
    version     2.0;
    format      ascii;
    class       volScalarField::Internal;
    location    "0.04";
    object      steelCloud:hsCoeff;
}
// * * * * * * * * * * * * * * * * * * * * * * * * * * * * * * * * * * * * * //

dimensions      [1 2 -2 -1 0 0 0];

value           nonuniform List<scalar> 
27
(
4.334880243e-06
4.339592479e-06
4.334880243e-06
4.339592479e-06
4.344715683e-06
4.339592479e-06
4.334880243e-06
4.339592479e-06
4.334880243e-06
3.4317178e-06
3.433725179e-06
3.4317178e-06
3.433725179e-06
3.435850447e-06
3.433725179e-06
3.4317178e-06
3.433725179e-06
3.4317178e-06
2.926550628e-06
2.927471623e-06
2.926550628e-06
2.927471623e-06
2.928427119e-06
2.927471623e-06
2.926550628e-06
2.927471623e-06
2.926550628e-06
)
;


// ************************************************************************* //
