/*--------------------------------*- C++ -*----------------------------------*\
  =========                 |
  \\      /  F ield         | OpenFOAM: The Open Source CFD Toolbox
   \\    /   O peration     | Website:  https://openfoam.org
    \\  /    A nd           | Version:  7
     \\/     M anipulation  |
\*---------------------------------------------------------------------------*/
FoamFile
{
    version     2.0;
    format      ascii;
    class       volScalarField::Internal;
    location    "0.04";
    object      steelCloud:hsTrans;
}
// * * * * * * * * * * * * * * * * * * * * * * * * * * * * * * * * * * * * * //

dimensions      [1 2 -2 0 0 0 0];

value           nonuniform List<scalar> 
27
(
0.0001501139416
0.0001502771231
0.0001501139416
0.0001502771231
0.0001504545361
0.0001502771231
0.0001501139416
0.0001502771231
0.0001501139416
0.0001188380431
0.0001189075573
0.0001188380431
0.0001189075573
0.0001189811539
0.0001189075573
0.0001188380431
0.0001189075573
0.0001188380431
0.000101344449
0.0001013763425
0.0001013444491
0.0001013763425
0.0001014094306
0.0001013763425
0.0001013444491
0.0001013763425
0.0001013444491
)
;


// ************************************************************************* //
