/*--------------------------------*- C++ -*----------------------------------*\
  =========                 |
  \\      /  F ield         | OpenFOAM: The Open Source CFD Toolbox
   \\    /   O peration     | Website:  https://openfoam.org
    \\  /    A nd           | Version:  7
     \\/     M anipulation  |
\*---------------------------------------------------------------------------*/
FoamFile
{
    version     2.0;
    format      ascii;
    class       volVectorField::Internal;
    location    "0.04";
    object      steelCloud:UTrans;
}
// * * * * * * * * * * * * * * * * * * * * * * * * * * * * * * * * * * * * * //

dimensions      [1 1 -1 0 0 0 0];

value           nonuniform List<vector> 
27
(
(-4.056701542e-08 5.730551986e-14 -1.836880457e-10)
(-4.061111383e-08 5.736781388e-14 -1.83887724e-10)
(-4.056701542e-08 5.730551986e-14 -1.836880457e-10)
(-4.061111383e-08 5.736781388e-14 -1.83887724e-10)
(-4.065905821e-08 5.743554076e-14 -1.841048169e-10)
(-4.061111383e-08 5.736781388e-14 -1.83887724e-10)
(-4.056701542e-08 5.730551986e-14 -1.836880457e-10)
(-4.061111383e-08 5.736781388e-14 -1.83887724e-10)
(-4.056701542e-08 5.730551986e-14 -1.836880457e-10)
(-3.211496999e-08 4.536604509e-14 -1.45417059e-10)
(-3.21337556e-08 4.53925819e-14 -1.455021206e-10)
(-3.211496999e-08 4.536604509e-14 -1.45417059e-10)
(-3.21337556e-08 4.53925819e-14 -1.455021206e-10)
(-3.215364444e-08 4.542067716e-14 -1.455921776e-10)
(-3.21337556e-08 4.53925819e-14 -1.455021206e-10)
(-3.211496999e-08 4.536604509e-14 -1.45417059e-10)
(-3.21337556e-08 4.53925819e-14 -1.455021206e-10)
(-3.211496999e-08 4.536604509e-14 -1.45417059e-10)
(-2.738747504e-08 3.868792117e-14 -1.24010892e-10)
(-2.739609396e-08 3.870009639e-14 -1.240499186e-10)
(-2.738747504e-08 3.868792117e-14 -1.24010892e-10)
(-2.739609396e-08 3.870009639e-14 -1.240499186e-10)
(-2.740503576e-08 3.871272769e-14 -1.240904072e-10)
(-2.739609397e-08 3.870009639e-14 -1.240499186e-10)
(-2.738747504e-08 3.868792117e-14 -1.24010892e-10)
(-2.739609397e-08 3.870009639e-14 -1.240499186e-10)
(-2.738747504e-08 3.868792117e-14 -1.24010892e-10)
)
;


// ************************************************************************* //
