/*--------------------------------*- C++ -*----------------------------------*\
  =========                 |
  \\      /  F ield         | OpenFOAM: The Open Source CFD Toolbox
   \\    /   O peration     | Website:  https://openfoam.org
    \\  /    A nd           | Version:  7
     \\/     M anipulation  |
\*---------------------------------------------------------------------------*/
FoamFile
{
    version     2.0;
    format      ascii;
    class       volScalarField::Internal;
    location    "0.04";
    object      steelCloud:UCoeff;
}
// * * * * * * * * * * * * * * * * * * * * * * * * * * * * * * * * * * * * * //

dimensions      [1 0 0 0 0 0 0];

value           nonuniform List<scalar> 
27
(
2.224289496e-08
2.226707412e-08
2.224289496e-08
2.226707412e-08
2.229336203e-08
2.226707412e-08
2.224289496e-08
2.226707412e-08
2.224289496e-08
1.760863837e-08
1.761893852e-08
1.760863837e-08
1.761893852e-08
1.762984358e-08
1.761893852e-08
1.760863837e-08
1.761893852e-08
1.760863837e-08
1.501655284e-08
1.50212786e-08
1.501655284e-08
1.50212786e-08
1.502618138e-08
1.50212786e-08
1.501655284e-08
1.50212786e-08
1.501655284e-08
)
;


// ************************************************************************* //
