/*--------------------------------*- C++ -*----------------------------------*\
  =========                 |
  \\      /  F ield         | OpenFOAM: The Open Source CFD Toolbox
   \\    /   O peration     | Website:  https://openfoam.org
    \\  /    A nd           | Version:  7
     \\/     M anipulation  |
\*---------------------------------------------------------------------------*/
FoamFile
{
    version     2.0;
    format      ascii;
    class       volScalarField;
    location    "0.04";
    object      Tavg;
}
// * * * * * * * * * * * * * * * * * * * * * * * * * * * * * * * * * * * * * //

dimensions      [0 0 0 1 0 0 0];

internalField   nonuniform List<scalar> 
27
(
304.1803906
304.18037
304.1803917
304.1806107
304.1805901
304.1806117
304.1808721
304.1808513
304.1808731
304.6659651
304.6659331
304.6659665
304.6662821
304.6662499
304.6662834
304.6666626
304.6666302
304.6666639
304.9474709
304.9474303
304.9474725
304.9478562
304.9478154
304.9478577
304.9483216
304.9482805
304.9483231
)
;

boundaryField
{
    inlet
    {
        type            fixedValue;
        value           nonuniform 0();
    }
    outlet
    {
        type            zeroGradient;
    }
    walls
    {
        type            zeroGradient;
    }
    procBoundary1to0
    {
        type            processor;
        value           nonuniform List<scalar> 9(303.6196751 303.6196643 303.6196758 303.619809 303.6197982 303.6198097 303.6199648 303.6199539 303.6199654);
    }
}


// ************************************************************************* //
