/*--------------------------------*- C++ -*----------------------------------*\
  =========                 |
  \\      /  F ield         | OpenFOAM: The Open Source CFD Toolbox
   \\    /   O peration     | Website:  https://openfoam.org
    \\  /    A nd           | Version:  7
     \\/     M anipulation  |
\*---------------------------------------------------------------------------*/
FoamFile
{
    version     2.0;
    format      ascii;
    class       volVectorField;
    location    "0.04";
    object      Uavg;
}
// * * * * * * * * * * * * * * * * * * * * * * * * * * * * * * * * * * * * * //

dimensions      [0 1 -1 0 0 0 0];

internalField   nonuniform List<vector> 
27
(
(1.159682997 7.055979206e-05 -0.01549558851)
(1.159691897 8.575508301e-07 -0.01549556235)
(1.159682851 -6.883973897e-05 -0.01549559028)
(1.159465145 7.041610721e-05 -0.0155566217)
(1.159474068 8.594443347e-07 -0.01555659623)
(1.159465005 -6.869233888e-05 -0.01555662572)
(1.159229765 7.026286716e-05 -0.01565012841)
(1.15923871 8.603562878e-07 -0.01565011387)
(1.159229628 -6.853727659e-05 -0.01565013484)
(1.157741955 8.371254353e-05 -0.01792006403)
(1.157755362 9.816095673e-07 -0.01792001421)
(1.157741736 -8.174280716e-05 -0.01792006644)
(1.157420619 8.349508491e-05 -0.01798903581)
(1.157434068 9.846377665e-07 -0.01798898576)
(1.15742041 -8.151935244e-05 -0.01798904078)
(1.157072978 8.326123104e-05 -0.01810516731)
(1.157086467 9.864560541e-07 -0.01810513648)
(1.157072774 -8.128185309e-05 -0.01810517506)
(1.163424242 9.211925123e-05 -0.01943189484)
(1.163440642 1.069423827e-06 -0.01943182622)
(1.163423982 -8.997304127e-05 -0.01943189793)
(1.163029946 9.185150274e-05 -0.01950617497)
(1.163046405 1.073094942e-06 -0.01950610466)
(1.163029699 -8.969802477e-05 -0.01950618077)
(1.162603526 9.156362161e-05 -0.01963673772)
(1.16262004 1.075385116e-06 -0.01963669202)
(1.162603285 -8.940555431e-05 -0.01963674645)
)
;

boundaryField
{
    inlet
    {
        type            interstitialInletVelocity;
        inletVelocity   nonuniform 0();
        value           nonuniform 0();
    }
    outlet
    {
        type            pressureInletOutletVelocity;
        phi             alphaRhoPhi;
        value           nonuniform List<vector> 9((1.505522217 0.004825671306 -0.05813482452) (1.511210703 0.004745015196 0.004768636377) (1.434039707 0.004501599079 -0.06909179777) (1.547874278 -3.769563094e-06 -0.05810947631) (1.554215367 -1.934497466e-07 0.005539139852) (1.477508816 -2.435150292e-06 -0.06923811795) (1.505491348 -0.004815892935 -0.05813365441) (1.511219301 -0.004731596763 0.004769689821) (1.434020993 -0.004490447492 -0.06909388673));
    }
    walls
    {
        type            noSlip;
    }
    procBoundary1to0
    {
        type            processor;
        value           nonuniform List<vector> 9((1.182283398 5.935796252e-05 -0.01300044928) (1.182288929 7.575383853e-07 -0.01300044316) (1.182283331 -5.783919643e-05 -0.01300045302) (1.182158709 5.92752206e-05 -0.01305389785) (1.182164249 7.571646007e-07 -0.01305389155) (1.182158644 -5.775717693e-05 -0.01305390285) (1.182023042 5.919015817e-05 -0.01312882784) (1.182028591 7.564366189e-07 -0.01312882524) (1.182022979 -5.767354443e-05 -0.01312883403));
    }
}


// ************************************************************************* //
