/*--------------------------------*- C++ -*----------------------------------*\
  =========                 |
  \\      /  F ield         | OpenFOAM: The Open Source CFD Toolbox
   \\    /   O peration     | Website:  https://openfoam.org
    \\  /    A nd           | Version:  7
     \\/     M anipulation  |
\*---------------------------------------------------------------------------*/
FoamFile
{
    version     2.0;
    format      ascii;
    class       surfaceScalarField;
    location    "0.065";
    object      alphaRhoPhi;
}
// * * * * * * * * * * * * * * * * * * * * * * * * * * * * * * * * * * * * * //

dimensions      [1 0 -1 0 0 0 0];

internalField   nonuniform List<scalar> 
54
(
4.947271712e-08
-3.078960593e-08
2.302639386e-05
-4.947293226e-08
-2.968603444e-08
2.347383437e-05
-3.078901689e-08
2.302639365e-05
4.98396298e-08
-1.230582975e-07
2.335294343e-05
-4.983833839e-08
-1.224340364e-07
2.380110532e-05
-1.230589459e-07
2.335294554e-05
4.999576407e-08
2.280555981e-05
-4.999524249e-08
2.32588163e-05
2.28055589e-05
4.716422444e-08
-1.316478317e-07
2.311131622e-05
-4.717107354e-08
-1.289058341e-07
2.369751703e-05
-1.316458537e-07
2.311130682e-05
4.75117248e-08
-2.183389255e-07
2.339256189e-05
-4.751079172e-08
-2.162109243e-07
2.398386871e-05
-2.183395974e-07
2.33925662e-05
4.758815142e-08
2.254006584e-05
-4.759208313e-08
2.313822061e-05
2.254006096e-05
3.290719308e-08
-3.678945304e-07
-3.291517269e-08
-3.613111416e-07
-3.67894522e-07
3.262976031e-08
-4.357937177e-07
-3.263117886e-08
-4.296763364e-07
-4.357950081e-07
3.205001091e-08
-3.205651781e-08
)
;

boundaryField
{
    inlet
    {
        type            calculated;
        value           nonuniform 0();
    }
    outlet
    {
        type            calculated;
        value           nonuniform List<scalar> 9(2.344664252e-05 2.342818582e-05 2.207252777e-05 2.412502217e-05 2.41178812e-05 2.277299207e-05 2.344662548e-05 2.342818986e-05 2.207251397e-05);
    }
    walls
    {
        type            calculated;
        value           uniform 0;
    }
    procBoundary1to0
    {
        type            processor;
        value           nonuniform List<scalar> 9(-2.304480013e-05 -2.334493673e-05 -2.304479963e-05 -2.33102487e-05 -2.360840898e-05 -2.331025073e-05 -2.297833646e-05 -2.328099661e-05 -2.297833899e-05);
    }
}


// ************************************************************************* //
