/*--------------------------------*- C++ -*----------------------------------*\
  =========                 |
  \\      /  F ield         | OpenFOAM: The Open Source CFD Toolbox
   \\    /   O peration     | Website:  https://openfoam.org
    \\  /    A nd           | Version:  7
     \\/     M anipulation  |
\*---------------------------------------------------------------------------*/
FoamFile
{
    version     2.0;
    format      ascii;
    class       volScalarField;
    location    "0.065";
    object      cpavg;
}
// * * * * * * * * * * * * * * * * * * * * * * * * * * * * * * * * * * * * * //

dimensions      [0 2 -2 -1 0 0 0];

internalField   nonuniform List<scalar> 
27
(
1011.69275
1011.692749
1011.69275
1011.692756
1011.692755
1011.692756
1011.692764
1011.692763
1011.692764
1011.717254
1011.717253
1011.717254
1011.717263
1011.717262
1011.717263
1011.717274
1011.717273
1011.717274
1011.73123
1011.731229
1011.73123
1011.731241
1011.73124
1011.731241
1011.731255
1011.731254
1011.731255
)
;

boundaryField
{
    inlet
    {
        type            calculated;
        value           nonuniform 0();
    }
    outlet
    {
        type            calculated;
        value           nonuniform List<scalar> 9(1011.853563 1011.850962 1011.855811 1011.84971 1011.847286 1011.851793 1011.853564 1011.850962 1011.855811);
    }
    walls
    {
        type            calculated;
        value           nonuniform List<scalar> 
36
(
1011.737937
1011.800093
1011.853563
1011.736564
1011.79758
1011.84971
1011.737937
1011.800093
1011.853564
1011.738084
1011.800874
1011.855811
1011.736691
1011.798302
1011.851793
1011.738083
1011.800874
1011.855811
1011.737937
1011.736635
1011.738083
1011.800093
1011.798003
1011.800874
1011.853564
1011.850962
1011.855811
1011.737937
1011.736635
1011.738084
1011.800093
1011.798003
1011.800874
1011.853563
1011.850962
1011.855811
)
;
    }
    procBoundary1to0
    {
        type            processor;
        value           nonuniform List<scalar> 9(1011.663867 1011.663866 1011.663867 1011.66387 1011.66387 1011.66387 1011.663875 1011.663874 1011.663875);
    }
}


// ************************************************************************* //
