/*--------------------------------*- C++ -*----------------------------------*\
  =========                 |
  \\      /  F ield         | OpenFOAM: The Open Source CFD Toolbox
   \\    /   O peration     | Website:  https://openfoam.org
    \\  /    A nd           | Version:  7
     \\/     M anipulation  |
\*---------------------------------------------------------------------------*/
FoamFile
{
    version     2.0;
    format      ascii;
    class       volScalarField;
    location    "0.065";
    object      muavg;
}
// * * * * * * * * * * * * * * * * * * * * * * * * * * * * * * * * * * * * * //

dimensions      [1 -1 -1 0 0 0 0];

internalField   nonuniform List<scalar> 
27
(
1.867293942e-05
1.867293876e-05
1.867293942e-05
1.867294468e-05
1.867294402e-05
1.867294468e-05
1.867295124e-05
1.867295057e-05
1.867295124e-05
1.869444802e-05
1.869444704e-05
1.869444803e-05
1.869445582e-05
1.869445483e-05
1.869445582e-05
1.869446552e-05
1.869446452e-05
1.869446552e-05
1.870670058e-05
1.870669937e-05
1.870670058e-05
1.870671016e-05
1.870670895e-05
1.870671017e-05
1.870672207e-05
1.870672085e-05
1.870672208e-05
)
;

boundaryField
{
    inlet
    {
        type            calculated;
        value           nonuniform 0();
    }
    outlet
    {
        type            calculated;
        value           nonuniform List<scalar> 9(1.881287408e-05 1.881066614e-05 1.881478079e-05 1.880960318e-05 1.88075443e-05 1.881137171e-05 1.881287463e-05 1.881066616e-05 1.88147812e-05);
    }
    walls
    {
        type            calculated;
        value           nonuniform List<scalar> 
36
(
1.871372375e-05
1.876728279e-05
1.881287408e-05
1.871253375e-05
1.876512911e-05
1.880960318e-05
1.871372369e-05
1.876728292e-05
1.881287463e-05
1.871385063e-05
1.876795183e-05
1.881478079e-05
1.871264374e-05
1.876574774e-05
1.881137171e-05
1.871385058e-05
1.876795191e-05
1.88147812e-05
1.871372369e-05
1.871259482e-05
1.871385058e-05
1.876728292e-05
1.876549172e-05
1.876795191e-05
1.881287463e-05
1.881066616e-05
1.88147812e-05
1.871372375e-05
1.871259486e-05
1.871385063e-05
1.876728279e-05
1.876549175e-05
1.876795183e-05
1.881287408e-05
1.881066614e-05
1.881478079e-05
)
;
    }
    procBoundary1to0
    {
        type            processor;
        value           nonuniform List<scalar> 9(1.864754231e-05 1.864754195e-05 1.864754231e-05 1.864754534e-05 1.864754498e-05 1.864754534e-05 1.864754908e-05 1.864754872e-05 1.864754908e-05);
    }
}


// ************************************************************************* //
