/*--------------------------------*- C++ -*----------------------------------*\
  =========                 |
  \\      /  F ield         | OpenFOAM: The Open Source CFD Toolbox
   \\    /   O peration     | Website:  https://openfoam.org
    \\  /    A nd           | Version:  7
     \\/     M anipulation  |
\*---------------------------------------------------------------------------*/
FoamFile
{
    version     2.0;
    format      ascii;
    class       volScalarField;
    location    "0.065";
    object      p;
}
// * * * * * * * * * * * * * * * * * * * * * * * * * * * * * * * * * * * * * //

dimensions      [1 -1 -2 0 0 0 0];

internalField   nonuniform List<scalar> 
27
(
101325.8565
101325.8532
101325.8565
101325.7963
101325.7928
101325.7963
101325.7435
101325.7398
101325.7435
101325.5166
101325.5153
101325.5166
101325.4674
101325.466
101325.4674
101325.4198
101325.4181
101325.4198
101325.1947
101325.1959
101325.1947
101325.1642
101325.1653
101325.1642
101325.1299
101325.1307
101325.1299
)
;

boundaryField
{
    inlet
    {
        type            zeroGradient;
    }
    outlet
    {
        type            totalPressure;
        rho             rho;
        psi             none;
        gamma           1;
        p0              uniform 101325;
        value           uniform 101325;
    }
    walls
    {
        type            zeroGradient;
    }
    procBoundary1to0
    {
        type            processor;
        value           nonuniform List<scalar> 9(101326.442 101326.4376 101326.442 101326.3762 101326.3717 101326.3762 101326.3204 101326.3158 101326.3204);
    }
}


// ************************************************************************* //
