/*--------------------------------*- C++ -*----------------------------------*\
  =========                 |
  \\      /  F ield         | OpenFOAM: The Open Source CFD Toolbox
   \\    /   O peration     | Website:  https://openfoam.org
    \\  /    A nd           | Version:  7
     \\/     M anipulation  |
\*---------------------------------------------------------------------------*/
FoamFile
{
    version     2.0;
    format      ascii;
    class       volScalarField;
    location    "0.065";
    object      pDyn;
}
// * * * * * * * * * * * * * * * * * * * * * * * * * * * * * * * * * * * * * //

dimensions      [1 -1 -2 0 0 0 0];

internalField   nonuniform List<scalar> 
27
(
1.585251105
1.636527811
1.58525104
1.627213865
1.679202819
1.627214378
1.569334015
1.620840121
1.56933432
1.383117021
1.445712894
1.383115678
1.421985408
1.485809809
1.421986101
1.342271951
1.404899304
1.342271217
1.300818354
1.37627419
1.30081442
1.309213016
1.386177187
1.309213664
1.180473329
1.254596475
1.180470521
)
;

boundaryField
{
    inlet
    {
        type            calculated;
        value           nonuniform 0();
    }
    outlet
    {
        type            calculated;
        value           nonuniform List<scalar> 9(1.300815854 1.309210894 1.180471815 1.376271528 1.386174925 1.254594857 1.30081192 1.309211542 1.180469007);
    }
    walls
    {
        type            calculated;
        value           uniform 0;
    }
    procBoundary1to0
    {
        type            processor;
        value           nonuniform List<scalar> 9(1.833638908 1.872091843 1.833639464 1.870304548 1.909073607 1.870304773 1.830616634 1.869278239 1.83061711);
    }
}


// ************************************************************************* //
