/*--------------------------------*- C++ -*----------------------------------*\
  =========                 |
  \\      /  F ield         | OpenFOAM: The Open Source CFD Toolbox
   \\    /   O peration     | Website:  https://openfoam.org
    \\  /    A nd           | Version:  7
     \\/     M anipulation  |
\*---------------------------------------------------------------------------*/
FoamFile
{
    version     2.0;
    format      ascii;
    class       surfaceScalarField;
    location    "0.065";
    object      phi;
}
// * * * * * * * * * * * * * * * * * * * * * * * * * * * * * * * * * * * * * //

dimensions      [0 3 -1 0 0 0 0];

internalField   nonuniform List<scalar> 
54
(
5.592165435e-08
-3.48032115e-08
2.526997866e-05
-5.592189745e-08
-3.356496613e-08
2.576420609e-05
-3.480254559e-08
2.526997842e-05
5.63520574e-08
-1.39100289e-07
2.563186728e-05
-5.63505972e-08
-1.3843245e-07
2.612768945e-05
-1.391010217e-07
2.563186955e-05
5.651335734e-08
2.502826511e-05
-5.651276769e-08
2.552880584e-05
2.502826408e-05
5.030602192e-08
-1.404190218e-07
2.428215585e-05
-5.031332731e-08
-1.374952665e-07
2.489625844e-05
-1.40416912e-07
2.428214617e-05
5.067817001e-08
-2.328909089e-07
2.457695344e-05
-5.06771747e-08
-2.306222844e-07
2.519673388e-05
-2.328916254e-07
2.457695794e-05
5.076024521e-08
2.368383697e-05
-5.076443902e-08
2.431045334e-05
2.368383198e-05
3.406391148e-08
-3.808387117e-07
-3.407217183e-08
-3.739728722e-07
-3.808387056e-07
3.377432728e-08
-4.511530806e-07
-3.377579556e-08
-4.447578257e-07
-4.511544187e-07
3.318031342e-08
-3.318704998e-08
)
;

boundaryField
{
    inlet
    {
        type            calculated;
        value           nonuniform 0();
    }
    outlet
    {
        type            calculated;
        value           nonuniform List<scalar> 9(2.427257796e-05 2.425160414e-05 2.285269655e-05 2.497132057e-05 2.49622889e-05 2.357438873e-05 2.427256067e-05 2.42516083e-05 2.285268251e-05);
    }
    walls
    {
        type            calculated;
        value           uniform 0;
    }
    procBoundary1to0
    {
        type            processor;
        value           nonuniform List<scalar> 9(-2.700167798e-05 -2.736588719e-05 -2.700167733e-05 -2.73252548e-05 -2.76892215e-05 -2.732525714e-05 -2.692387512e-05 -2.729098925e-05 -2.692387803e-05);
    }
}


// ************************************************************************* //
