/*--------------------------------*- C++ -*----------------------------------*\
  =========                 |
  \\      /  F ield         | OpenFOAM: The Open Source CFD Toolbox
   \\    /   O peration     | Website:  https://openfoam.org
    \\  /    A nd           | Version:  7
     \\/     M anipulation  |
\*---------------------------------------------------------------------------*/
FoamFile
{
    version     2.0;
    format      ascii;
    class       surfaceScalarField;
    location    "0.065";
    object      rhoPhi;
}
// * * * * * * * * * * * * * * * * * * * * * * * * * * * * * * * * * * * * * //

dimensions      [1 0 -1 0 0 0 0];

internalField   nonuniform List<scalar> 
54
(
6.448373737e-08
-4.013179341e-08
2.908930316e-05
-6.448401778e-08
-3.870669229e-08
2.9661313e-05
-4.013102563e-08
2.90893029e-05
6.498433525e-08
-1.60396667e-07
2.950855636e-05
-6.498265143e-08
-1.596379126e-07
3.008224346e-05
-1.603975122e-07
2.950855903e-05
6.516548731e-08
2.881032293e-05
-6.516480747e-08
2.938961822e-05
2.881032178e-05
5.781634647e-08
-1.613807232e-07
2.786611587e-05
-5.782474246e-08
-1.580409266e-07
2.857562617e-05
-1.613782985e-07
2.786610454e-05
5.825024959e-08
-2.676511511e-07
2.820789632e-05
-5.824910562e-08
-2.65078575e-07
2.892380656e-05
-2.676519748e-07
2.820790152e-05
5.83360181e-08
2.717733946e-05
-5.83408378e-08
2.790119916e-05
2.717733358e-05
3.90403654e-08
-4.364619268e-07
-3.904983223e-08
-4.286771504e-07
-4.364619168e-07
3.871353817e-08
-5.170160195e-07
-3.87152212e-08
-5.0978895e-07
-5.170175504e-07
3.802342345e-08
-3.80311431e-08
)
;

boundaryField
{
    inlet
    {
        type            calculated;
        value           nonuniform 0();
    }
    outlet
    {
        type            calculated;
        value           nonuniform List<scalar> 9(2.781576203e-05 2.779549605e-05 2.61855905e-05 2.862223152e-05 2.861550043e-05 2.70181659e-05 2.781574182e-05 2.779550085e-05 2.618557413e-05);
    }
    walls
    {
        type            calculated;
        value           uniform 0;
    }
    procBoundary1to0
    {
        type            processor;
        value           nonuniform List<scalar> 9(-3.120105124e-05 -3.162348716e-05 -3.120105057e-05 -3.157649811e-05 -3.199846585e-05 -3.157650086e-05 -3.111106408e-05 -3.153687269e-05 -3.11110675e-05);
    }
}


// ************************************************************************* //
