/*--------------------------------*- C++ -*----------------------------------*\
  =========                 |
  \\      /  F ield         | OpenFOAM: The Open Source CFD Toolbox
   \\    /   O peration     | Website:  https://openfoam.org
    \\  /    A nd           | Version:  7
     \\/     M anipulation  |
\*---------------------------------------------------------------------------*/
FoamFile
{
    version     2.0;
    format      ascii;
    class       volScalarField::Internal;
    location    "0.065";
    object      steelCloud:UCoeff;
}
// * * * * * * * * * * * * * * * * * * * * * * * * * * * * * * * * * * * * * //

dimensions      [1 0 0 0 0 0 0];

value           nonuniform List<scalar> 
27
(
2.221894291e-08
2.224309603e-08
2.221894291e-08
2.224309603e-08
2.226935562e-08
2.224309603e-08
2.221894291e-08
2.224309603e-08
2.221894291e-08
1.758967667e-08
1.759996573e-08
1.758967667e-08
1.759996573e-08
1.761085904e-08
1.759996573e-08
1.758967667e-08
1.759996573e-08
1.758967667e-08
1.50003824e-08
1.500510307e-08
1.50003824e-08
1.500510307e-08
1.501000058e-08
1.500510307e-08
1.50003824e-08
1.500510307e-08
1.50003824e-08
)
;


// ************************************************************************* //
