/*--------------------------------*- C++ -*----------------------------------*\
  =========                 |
  \\      /  F ield         | OpenFOAM: The Open Source CFD Toolbox
   \\    /   O peration     | Website:  https://openfoam.org
    \\  /    A nd           | Version:  7
     \\/     M anipulation  |
\*---------------------------------------------------------------------------*/
FoamFile
{
    version     2.0;
    format      ascii;
    class       volVectorField::Internal;
    location    "0.065";
    object      steelCloud:UTrans;
}
// * * * * * * * * * * * * * * * * * * * * * * * * * * * * * * * * * * * * * //

dimensions      [1 1 -1 0 0 0 0];

value           nonuniform List<vector> 
27
(
(-4.05293268e-08 -8.290795334e-16 -1.858607584e-10)
(-4.057338424e-08 -8.299807851e-16 -1.860627985e-10)
(-4.05293268e-08 -8.290795334e-16 -1.858607584e-10)
(-4.057338424e-08 -8.299807851e-16 -1.860627985e-10)
(-4.062128408e-08 -8.309606378e-16 -1.862824592e-10)
(-4.057338424e-08 -8.299807851e-16 -1.860627985e-10)
(-4.05293268e-08 -8.290795334e-16 -1.858607584e-10)
(-4.057338424e-08 -8.299807851e-16 -1.860627985e-10)
(-4.05293268e-08 -8.290795334e-16 -1.858607584e-10)
(-3.208513371e-08 -6.563426976e-16 -1.47137092e-10)
(-3.210390187e-08 -6.567266245e-16 -1.472231597e-10)
(-3.208513371e-08 -6.563426976e-16 -1.47137092e-10)
(-3.210390187e-08 -6.567266245e-16 -1.472231597e-10)
(-3.212377224e-08 -6.571330984e-16 -1.473142819e-10)
(-3.210390187e-08 -6.567266245e-16 -1.472231597e-10)
(-3.208513371e-08 -6.563426976e-16 -1.47137092e-10)
(-3.210390187e-08 -6.567266245e-16 -1.472231597e-10)
(-3.208513371e-08 -6.563426976e-16 -1.47137092e-10)
(-2.736203082e-08 -5.597255502e-16 -1.254777269e-10)
(-2.737064174e-08 -5.599016977e-16 -1.255172152e-10)
(-2.736203082e-08 -5.597255502e-16 -1.254777269e-10)
(-2.737064174e-08 -5.599016977e-16 -1.255172152e-10)
(-2.737957523e-08 -5.600844436e-16 -1.255581826e-10)
(-2.737064174e-08 -5.599016977e-16 -1.255172152e-10)
(-2.736203082e-08 -5.597255502e-16 -1.254777269e-10)
(-2.737064174e-08 -5.599016977e-16 -1.255172152e-10)
(-2.736203082e-08 -5.597255502e-16 -1.254777269e-10)
)
;


// ************************************************************************* //
