/*--------------------------------*- C++ -*----------------------------------*\
  =========                 |
  \\      /  F ield         | OpenFOAM: The Open Source CFD Toolbox
   \\    /   O peration     | Website:  https://openfoam.org
    \\  /    A nd           | Version:  7
     \\/     M anipulation  |
\*---------------------------------------------------------------------------*/
FoamFile
{
    version     2.0;
    format      ascii;
    class       volScalarField::Internal;
    location    "0.065";
    object      steelCloud:hsTrans;
}
// * * * * * * * * * * * * * * * * * * * * * * * * * * * * * * * * * * * * * //

dimensions      [1 2 -2 0 0 0 0];

value           nonuniform List<scalar> 
27
(
0.000151117947
0.0001512822199
0.0001511179469
0.0001512822199
0.0001514608195
0.0001512822199
0.0001511179469
0.0001512822199
0.000151117947
0.0001196328663
0.0001197028454
0.0001196328663
0.0001197028454
0.0001197769342
0.0001197028454
0.0001196328663
0.0001197028454
0.0001196328663
0.00010202227
0.0001020543767
0.00010202227
0.0001020543767
0.0001020876862
0.0001020543767
0.00010202227
0.0001020543767
0.00010202227
)
;


// ************************************************************************* //
