/*--------------------------------*- C++ -*----------------------------------*\
  =========                 |
  \\      /  F ield         | OpenFOAM: The Open Source CFD Toolbox
   \\    /   O peration     | Website:  https://openfoam.org
    \\  /    A nd           | Version:  7
     \\/     M anipulation  |
\*---------------------------------------------------------------------------*/
FoamFile
{
    version     2.0;
    format      ascii;
    class       volScalarField;
    location    "0.065";
    object      T;
}
// * * * * * * * * * * * * * * * * * * * * * * * * * * * * * * * * * * * * * //

dimensions      [0 0 0 1 0 0 0];

internalField   nonuniform List<scalar> 
27
(
304.8035529
304.7808686
304.8035521
304.7820203
304.7617355
304.7820197
304.8059356
304.7829292
304.8059349
305.8235798
305.782691
305.8235802
305.7895226
305.7513945
305.7895219
305.8361535
305.7943154
305.8361537
306.6869746
306.6255983
306.6869792
306.6453833
306.5867974
306.645383
306.7223832
306.6584707
306.7223865
)
;

boundaryField
{
    inlet
    {
        type            fixedValue;
        value           nonuniform 0();
    }
    outlet
    {
        type            zeroGradient;
    }
    walls
    {
        type            zeroGradient;
    }
    procBoundary1to0
    {
        type            processor;
        value           nonuniform List<scalar> 9(303.5118291 303.5039595 303.5118284 303.503136 303.4971916 303.5031358 303.5104044 303.5024397 303.510404);
    }
}


// ************************************************************************* //
