/*--------------------------------*- C++ -*----------------------------------*\
  =========                 |
  \\      /  F ield         | OpenFOAM: The Open Source CFD Toolbox
   \\    /   O peration     | Website:  https://openfoam.org
    \\  /    A nd           | Version:  7
     \\/     M anipulation  |
\*---------------------------------------------------------------------------*/
FoamFile
{
    version     2.0;
    format      ascii;
    class       volVectorField;
    location    "0.065";
    object      Uavg;
}
// * * * * * * * * * * * * * * * * * * * * * * * * * * * * * * * * * * * * * //

dimensions      [0 1 -1 0 0 0 0];

internalField   nonuniform List<vector> 
27
(
(1.159959034 7.15741528e-05 -0.01576307982)
(1.159968117 6.435229098e-08 -0.01576303742)
(1.159959027 -7.144450218e-05 -0.01576307948)
(1.159742053 7.140857095e-05 -0.01582563087)
(1.159751159 6.501715347e-08 -0.01582558795)
(1.159742046 -7.127759853e-05 -0.01582563095)
(1.159507395 7.123487387e-05 -0.01592180297)
(1.159516524 6.555527735e-08 -0.01592176925)
(1.159507389 -7.110282639e-05 -0.01592180348)
(1.157883755 8.529189774e-05 -0.01825158408)
(1.157897447 6.314526026e-08 -0.01825150576)
(1.157883745 -8.516404184e-05 -0.0182515836)
(1.157563275 8.503860139e-05 -0.01832254422)
(1.157577009 6.407979247e-08 -0.01832246416)
(1.157563265 -8.490889065e-05 -0.01832254438)
(1.157216259 8.477089492e-05 -0.01844261095)
(1.157230037 6.480264809e-08 -0.01844254767)
(1.15721625 -8.463973908e-05 -0.01844261178)
(1.163495347 9.409299885e-05 -0.01980333962)
(1.163512101 6.284521514e-08 -0.01980323297)
(1.163495335 -9.396532688e-05 -0.01980333911)
(1.163101709 9.377909534e-05 -0.01987995297)
(1.163118523 6.393314011e-08 -0.01987984287)
(1.163101697 -9.364926413e-05 -0.01987995324)
(1.162675653 9.344736505e-05 -0.02001537415)
(1.162692528 6.475875812e-08 -0.02001528568)
(1.162675641 -9.331588198e-05 -0.02001537523)
)
;

boundaryField
{
    inlet
    {
        type            interstitialInletVelocity;
        inletVelocity   nonuniform 0();
        value           nonuniform 0();
    }
    outlet
    {
        type            pressureInletOutletVelocity;
        phi             alphaRhoPhi;
        value           nonuniform List<vector> 9((1.505502082 0.005082301745 -0.0600849189) (1.511439072 0.004965253718 0.006170965929) (1.43360818 0.004698119587 -0.07168110266) (1.548475541 -1.925268001e-06 -0.05994731327) (1.555085798 -1.378132979e-06 0.007032872015) (1.477892236 -1.801097422e-06 -0.0716847658) (1.505499844 -0.005080541376 -0.06008464647) (1.511439455 -0.004962939446 0.00617099589) (1.433606468 -0.004696202828 -0.07168163477));
    }
    walls
    {
        type            noSlip;
    }
    procBoundary1to0
    {
        type            processor;
        value           nonuniform List<vector> 9((1.182728846 5.987294766e-05 -0.01320140567) (1.182734472 6.663716816e-08 -0.01320139113) (1.182728843 -5.973924432e-05 -0.0132014055) (1.182604831 5.978127191e-05 -0.01325595685) (1.182610466 6.703384859e-08 -0.01325594152) (1.182604827 -5.964677763e-05 -0.01325595691) (1.182469746 5.968771402e-05 -0.01333250177) (1.18247539 6.737273048e-08 -0.01333248945) (1.182469743 -5.955254237e-05 -0.01333250206));
    }
}


// ************************************************************************* //
