/*--------------------------------*- C++ -*----------------------------------*\
  =========                 |
  \\      /  F ield         | OpenFOAM: The Open Source CFD Toolbox
   \\    /   O peration     | Website:  https://openfoam.org
    \\  /    A nd           | Version:  7
     \\/     M anipulation  |
\*---------------------------------------------------------------------------*/
FoamFile
{
    version     2.0;
    format      ascii;
    class       surfaceScalarField;
    location    "0.015";
    object      alphaRhoPhi;
}
// * * * * * * * * * * * * * * * * * * * * * * * * * * * * * * * * * * * * * //

dimensions      [1 0 -1 0 0 0 0];

internalField   nonuniform List<scalar> 
54
(
2.413517564e-08
2.724380322e-08
2.301637302e-05
-2.417382341e-08
2.645455691e-08
2.308966379e-05
2.70513671e-08
2.301652837e-05
2.336930811e-08
-2.084995194e-08
2.309253063e-05
-2.358177641e-08
-2.034571282e-08
2.316161932e-05
-2.094164022e-08
2.309221494e-05
2.404800712e-08
2.302283744e-05
-2.436042941e-08
2.309585573e-05
2.302243097e-05
2.802314563e-08
1.410080561e-08
2.268653197e-05
-2.808964861e-08
1.428581653e-08
2.284408081e-05
1.450275088e-08
2.268622182e-05
2.840422326e-08
-4.19481638e-08
2.283279464e-05
-2.766210868e-08
-4.167339179e-08
2.298661833e-05
-4.158962752e-08
2.283326288e-05
2.850748013e-08
2.266470972e-05
-2.783407544e-08
2.28231589e-05
2.266533124e-05
3.571648107e-08
5.631885964e-09
-3.521047267e-08
5.532826455e-09
5.276516865e-09
3.574553696e-08
-6.514629535e-08
-3.584686843e-08
-6.573634675e-08
-6.549456984e-08
3.551800144e-08
-3.569209672e-08
)
;

boundaryField
{
    inlet
    {
        type            calculated;
        value           nonuniform List<scalar> 9(-2.321008707e-05 -2.321007622e-05 -2.321006867e-05 -2.321008544e-05 -2.321007442e-05 -2.321006681e-05 -2.321008701e-05 -2.321007591e-05 -2.321006836e-05);
    }
    outlet
    {
        type            calculated;
        value           nonuniform 0();
    }
    walls
    {
        type            calculated;
        value           uniform 0;
    }
    procBoundary0to1
    {
        type            processor;
        value           nonuniform List<scalar> 9(2.225976912e-05 2.252411148e-05 2.22603229e-05 2.248261763e-05 2.27443734e-05 2.248297414e-05 2.217892439e-05 2.244355846e-05 2.217902022e-05);
    }
}


// ************************************************************************* //
