/*--------------------------------*- C++ -*----------------------------------*\
  =========                 |
  \\      /  F ield         | OpenFOAM: The Open Source CFD Toolbox
   \\    /   O peration     | Website:  https://openfoam.org
    \\  /    A nd           | Version:  7
     \\/     M anipulation  |
\*---------------------------------------------------------------------------*/
FoamFile
{
    version     2.0;
    format      ascii;
    class       volScalarField;
    location    "0.015";
    object      cpavg;
}
// * * * * * * * * * * * * * * * * * * * * * * * * * * * * * * * * * * * * * //

dimensions      [0 2 -2 -1 0 0 0];

internalField   nonuniform List<scalar> 
27
(
1012.627631
1012.62763
1012.627631
1012.62763
1012.62763
1012.62763
1012.62763
1012.62763
1012.62763
1012.701387
1012.701387
1012.701387
1012.701387
1012.701386
1012.701387
1012.701387
1012.701386
1012.701387
1012.825746
1012.825745
1012.825746
1012.825745
1012.825744
1012.825745
1012.825745
1012.825744
1012.825745
)
;

boundaryField
{
    inlet
    {
        type            calculated;
        value           uniform 1011.338357;
    }
    outlet
    {
        type            calculated;
        value           nonuniform 0();
    }
    walls
    {
        type            calculated;
        value           nonuniform List<scalar> 
36
(
1011.781448
1012.34419
1012.839311
1011.781725
1012.343327
1012.837219
1011.781448
1012.344191
1012.83931
1011.781446
1012.344314
1012.839335
1011.781724
1012.343448
1012.837234
1011.781446
1012.344314
1012.839335
1011.781448
1011.781724
1011.781446
1012.344191
1012.343387
1012.344314
1012.83931
1012.837226
1012.839335
1011.781448
1011.781724
1011.781446
1012.34419
1012.343387
1012.344314
1012.839311
1012.837226
1012.839335
)
;
    }
    procBoundary0to1
    {
        type            processor;
        value           nonuniform List<scalar> 9(1012.964703 1012.964702 1012.964703 1012.964701 1012.9647 1012.964701 1012.964702 1012.9647 1012.964702);
    }
}


// ************************************************************************* //
