/*--------------------------------*- C++ -*----------------------------------*\
  =========                 |
  \\      /  F ield         | OpenFOAM: The Open Source CFD Toolbox
   \\    /   O peration     | Website:  https://openfoam.org
    \\  /    A nd           | Version:  7
     \\/     M anipulation  |
\*---------------------------------------------------------------------------*/
FoamFile
{
    version     2.0;
    format      ascii;
    class       volScalarField;
    location    "0.015";
    object      kappaavg;
}
// * * * * * * * * * * * * * * * * * * * * * * * * * * * * * * * * * * * * * //

dimensions      [1 1 -3 -1 0 0 0];

internalField   nonuniform List<scalar> 
27
(
0.02845657444
0.02845657408
0.02845657444
0.02845657401
0.02845657365
0.02845657401
0.0284565743
0.02845657394
0.0284565743
0.02853891128
0.02853891066
0.02853891128
0.02853891039
0.02853890977
0.02853891039
0.02853891072
0.02853891011
0.02853891072
0.0286770835
0.02867708254
0.0286770835
0.02867708191
0.02867708095
0.02867708191
0.02867708222
0.02867708126
0.02867708222
)
;

boundaryField
{
    inlet
    {
        type            calculated;
        value           uniform 0.02688265352;
    }
    outlet
    {
        type            calculated;
        value           nonuniform 0();
    }
    walls
    {
        type            calculated;
        value           nonuniform List<scalar> 
36
(
0.02747600725
0.02816562667
0.02872514758
0.02747636341
0.02816461534
0.02872286389
0.02747600725
0.02816562753
0.02872514624
0.02747600566
0.0281657717
0.02872517306
0.02747636181
0.02816475662
0.02872288008
0.02747600566
0.02816577093
0.02872517408
0.02747600725
0.0274763626
0.02747600566
0.02816562753
0.0281646861
0.02816577093
0.02872514624
0.02872287177
0.02872517408
0.02747600725
0.0274763626
0.02747600566
0.02816562667
0.02816468612
0.0281657717
0.02872514758
0.02872287165
0.02872517306
)
;
    }
    procBoundary0to1
    {
        type            processor;
        value           nonuniform List<scalar> 9(0.02883055087 0.02883054964 0.02883055087 0.02883054873 0.0288305475 0.02883054873 0.02883054905 0.02883054782 0.02883054905);
    }
}


// ************************************************************************* //
