/*--------------------------------*- C++ -*----------------------------------*\
  =========                 |
  \\      /  F ield         | OpenFOAM: The Open Source CFD Toolbox
   \\    /   O peration     | Website:  https://openfoam.org
    \\  /    A nd           | Version:  7
     \\/     M anipulation  |
\*---------------------------------------------------------------------------*/
FoamFile
{
    version     2.0;
    format      ascii;
    class       volScalarField;
    location    "0.015";
    object      pDyn;
}
// * * * * * * * * * * * * * * * * * * * * * * * * * * * * * * * * * * * * * //

dimensions      [1 -1 -2 0 0 0 0];

internalField   nonuniform List<scalar> 
27
(
1.994458033
2.011313681
1.994474225
2.010166091
2.027250597
2.010197822
1.99258305
2.009445072
1.992614827
3.388722709
3.424705832
3.38866979
3.41915515
3.455125518
3.419155934
3.378450694
3.414466764
3.378460821
4.280455393
4.33769878
4.280479152
4.328210497
4.385621875
4.328199351
4.262540505
4.319769158
4.262514783
)
;

boundaryField
{
    inlet
    {
        type            calculated;
        value           nonuniform List<scalar> 9(2.218080371 2.222991859 2.218076845 2.222993635 2.228494449 2.222990097 2.218080371 2.222991858 2.218076843);
    }
    outlet
    {
        type            calculated;
        value           nonuniform 0();
    }
    walls
    {
        type            calculated;
        value           uniform 0;
    }
    procBoundary0to1
    {
        type            processor;
        value           nonuniform List<scalar> 9(4.549294563 4.622633567 4.549374479 4.60919618 4.683341165 4.609197306 4.524205825 4.597418932 4.524172304);
    }
}


// ************************************************************************* //
