/*--------------------------------*- C++ -*----------------------------------*\
  =========                 |
  \\      /  F ield         | OpenFOAM: The Open Source CFD Toolbox
   \\    /   O peration     | Website:  https://openfoam.org
    \\  /    A nd           | Version:  7
     \\/     M anipulation  |
\*---------------------------------------------------------------------------*/
FoamFile
{
    version     2.0;
    format      ascii;
    class       surfaceScalarField;
    location    "0.015";
    object      phi;
}
// * * * * * * * * * * * * * * * * * * * * * * * * * * * * * * * * * * * * * //

dimensions      [0 3 -1 0 0 0 0];

internalField   nonuniform List<scalar> 
54
(
3.259437839e-08
3.679256425e-08
3.064036027e-05
-3.264657197e-08
3.576872167e-08
3.077129578e-05
3.653268092e-08
3.064056807e-05
3.159721933e-08
-2.81577239e-08
3.077520844e-05
-3.188449409e-08
-2.750907614e-08
3.090549564e-05
-2.828154869e-08
3.077478687e-05
3.247668289e-08
3.064914448e-05
-3.289860744e-08
3.077972349e-05
3.064860197e-05
3.683067726e-08
1.853266908e-08
2.894000428e-05
-3.691808296e-08
1.879735438e-08
2.916484746e-05
1.906094512e-08
2.893960871e-05
3.737453536e-08
-5.513271493e-08
2.915073964e-05
-3.639805299e-08
-5.483436733e-08
2.937499494e-05
-5.466148386e-08
2.915133603e-05
3.746764162e-08
2.891275371e-05
-3.658257777e-08
2.913871798e-05
2.891354517e-05
4.431788224e-08
6.988234426e-09
-4.369001337e-08
6.869695161e-09
6.547280156e-09
4.438288411e-08
-8.083692851e-08
-4.450870013e-08
-8.162108227e-08
-8.126908495e-08
4.407290626e-08
-4.428893453e-08
)
;

boundaryField
{
    inlet
    {
        type            calculated;
        value           nonuniform List<scalar> 9(-3.102855299e-05 -3.106290004e-05 -3.102855299e-05 -3.106290004e-05 -3.11013218e-05 -3.106290004e-05 -3.102855299e-05 -3.106290004e-05 -3.102855299e-05);
    }
    outlet
    {
        type            calculated;
        value           nonuniform 0();
    }
    walls
    {
        type            calculated;
        value           uniform 0;
    }
    procBoundary0to1
    {
        type            processor;
        value           nonuniform List<scalar> 9(2.672283258e-05 2.704997449e-05 2.672349658e-05 2.70006434e-05 2.732655761e-05 2.700107133e-05 2.662675139e-05 2.695420327e-05 2.6626867e-05);
    }
}


// ************************************************************************* //
