/*--------------------------------*- C++ -*----------------------------------*\
  =========                 |
  \\      /  F ield         | OpenFOAM: The Open Source CFD Toolbox
   \\    /   O peration     | Website:  https://openfoam.org
    \\  /    A nd           | Version:  7
     \\/     M anipulation  |
\*---------------------------------------------------------------------------*/
FoamFile
{
    version     2.0;
    format      ascii;
    class       surfaceScalarField;
    location    "0.015";
    object      rhoPhi;
}
// * * * * * * * * * * * * * * * * * * * * * * * * * * * * * * * * * * * * * //

dimensions      [1 0 -1 0 0 0 0];

internalField   nonuniform List<scalar> 
54
(
3.807387363e-08
4.29778153e-08
3.555004749e-05
-3.813484151e-08
4.178166454e-08
3.570260939e-05
4.267424228e-08
3.555028743e-05
3.690889986e-08
-3.289134693e-08
3.570704227e-05
-3.724446697e-08
-3.21335092e-08
3.585880773e-05
-3.30359876e-08
3.570655413e-05
3.793636301e-08
3.556003214e-05
-3.842921737e-08
3.571218374e-05
3.555940432e-05
4.244298084e-08
2.135663963e-08
3.31079253e-05
-4.254370419e-08
2.166251523e-08
3.336764936e-05
2.196541337e-08
3.310747268e-05
4.307117605e-08
-6.353337831e-08
3.335116398e-05
-4.194585932e-08
-6.319208162e-08
3.361014586e-05
-6.299035047e-08
3.335184793e-05
4.317653874e-08
3.307607867e-05
-4.215662104e-08
3.333708936e-05
3.307698569e-05
5.033373324e-08
7.936779807e-09
-4.962063689e-08
7.802990001e-09
7.435973094e-09
5.041222054e-08
-9.18079316e-08
-5.055512914e-08
-9.270850272e-08
-9.229874017e-08
5.005402424e-08
-5.02993694e-08
)
;

boundaryField
{
    inlet
    {
        type            calculated;
        value           nonuniform List<scalar> 9(-3.65942793e-05 -3.663477021e-05 -3.659425029e-05 -3.663478476e-05 -3.668008097e-05 -3.663475534e-05 -3.659427921e-05 -3.663476971e-05 -3.659424981e-05);
    }
    outlet
    {
        type            calculated;
        value           nonuniform 0();
    }
    walls
    {
        type            calculated;
        value           uniform 0;
    }
    procBoundary0to1
    {
        type            processor;
        value           nonuniform List<scalar> 9(3.013817403e-05 3.051158195e-05 3.013892381e-05 3.045537361e-05 3.082736564e-05 3.045585654e-05 3.002871592e-05 3.040246333e-05 3.002884567e-05);
    }
}


// ************************************************************************* //
