/*--------------------------------*- C++ -*----------------------------------*\
  =========                 |
  \\      /  F ield         | OpenFOAM: The Open Source CFD Toolbox
   \\    /   O peration     | Website:  https://openfoam.org
    \\  /    A nd           | Version:  7
     \\/     M anipulation  |
\*---------------------------------------------------------------------------*/
FoamFile
{
    version     2.0;
    format      ascii;
    class       volScalarField::Internal;
    location    "0.015";
    object      steelCloud:hsTrans;
}
// * * * * * * * * * * * * * * * * * * * * * * * * * * * * * * * * * * * * * //

dimensions      [1 2 -2 0 0 0 0];

value           nonuniform List<scalar> 
27
(
8.604147943e-05
8.620646269e-05
8.604147943e-05
8.620646269e-05
8.639058667e-05
8.620646269e-05
8.604147943e-05
8.620646269e-05
8.604147943e-05
7.983970331e-05
8.00105459e-05
7.983970331e-05
8.00105459e-05
8.020773283e-05
8.00105459e-05
7.983970331e-05
8.00105459e-05
7.983970331e-05
6.825949874e-05
6.837661269e-05
6.825949874e-05
6.837661269e-05
6.850811396e-05
6.837661269e-05
6.825949874e-05
6.837661269e-05
6.825949874e-05
)
;


// ************************************************************************* //
