/*--------------------------------*- C++ -*----------------------------------*\
  =========                 |
  \\      /  F ield         | OpenFOAM: The Open Source CFD Toolbox
   \\    /   O peration     | Website:  https://openfoam.org
    \\  /    A nd           | Version:  7
     \\/     M anipulation  |
\*---------------------------------------------------------------------------*/
FoamFile
{
    version     2.0;
    format      ascii;
    class       volScalarField::Internal;
    location    "0.015";
    object      steelCloud:hsCoeff;
}
// * * * * * * * * * * * * * * * * * * * * * * * * * * * * * * * * * * * * * //

dimensions      [1 2 -2 -1 0 0 0];

value           nonuniform List<scalar> 
27
(
6.905183994e-06
6.918424581e-06
6.905183993e-06
6.918424581e-06
6.933201291e-06
6.918424581e-06
6.905183993e-06
6.918424581e-06
6.905183993e-06
6.407465853e-06
6.421176676e-06
6.407465853e-06
6.421176676e-06
6.437001741e-06
6.421176676e-06
6.407465853e-06
6.421176676e-06
6.407465853e-06
5.478106621e-06
5.487505499e-06
5.47810662e-06
5.487505499e-06
5.498059019e-06
5.487505499e-06
5.47810662e-06
5.487505499e-06
5.478106621e-06
)
;


// ************************************************************************* //
