/*--------------------------------*- C++ -*----------------------------------*\
  =========                 |
  \\      /  F ield         | OpenFOAM: The Open Source CFD Toolbox
   \\    /   O peration     | Website:  https://openfoam.org
    \\  /    A nd           | Version:  7
     \\/     M anipulation  |
\*---------------------------------------------------------------------------*/
FoamFile
{
    version     2.0;
    format      ascii;
    class       volScalarField;
    location    "0.015";
    object      T;
}
// * * * * * * * * * * * * * * * * * * * * * * * * * * * * * * * * * * * * * //

dimensions      [0 0 0 1 0 0 0];

internalField   nonuniform List<scalar> 
27
(
300.8726106
300.8738701
300.8726106
300.8738655
300.8752767
300.8738654
300.8726017
300.873861
300.8726016
304.9802724
304.9678298
304.9802863
304.9694184
304.9576628
304.9693912
304.9833492
304.9708331
304.9833124
309.4557907
309.4218688
309.4557674
309.4264107
309.3937182
309.4263965
309.4647469
309.4306802
309.4647455
)
;

boundaryField
{
    inlet
    {
        type            fixedValue;
        value           uniform 298;
    }
    outlet
    {
        type            zeroGradient;
    }
    walls
    {
        type            zeroGradient;
    }
    procBoundary0to1
    {
        type            processor;
        value           nonuniform List<scalar> 9(313.8091648 313.7517193 313.8091593 313.7585006 313.7023493 313.7584987 313.8225262 313.7648225 313.8225317);
    }
}


// ************************************************************************* //
