/*--------------------------------*- C++ -*----------------------------------*\
  =========                 |
  \\      /  F ield         | OpenFOAM: The Open Source CFD Toolbox
   \\    /   O peration     | Website:  https://openfoam.org
    \\  /    A nd           | Version:  7
     \\/     M anipulation  |
\*---------------------------------------------------------------------------*/
FoamFile
{
    version     2.0;
    format      ascii;
    class       volScalarField;
    location    "0.015";
    object      Tavg;
}
// * * * * * * * * * * * * * * * * * * * * * * * * * * * * * * * * * * * * * //

dimensions      [0 0 0 1 0 0 0];

internalField   nonuniform List<scalar> 
27
(
318.086681
318.0866763
318.086681
318.0866753
318.0866706
318.0866753
318.086679
318.0866743
318.086679
319.1467134
319.1467055
319.1467134
319.1467018
319.1466939
319.1467018
319.1467061
319.1466981
319.1467061
320.9264216
320.9264092
320.9264216
320.9264009
320.9263885
320.9264009
320.9264049
320.9263925
320.9264049
)
;

boundaryField
{
    inlet
    {
        type            fixedValue;
        value           uniform 298;
    }
    outlet
    {
        type            zeroGradient;
    }
    walls
    {
        type            zeroGradient;
    }
    procBoundary0to1
    {
        type            processor;
        value           nonuniform List<scalar> 9(322.9043166 322.9043006 322.9043166 322.9042889 322.9042729 322.9042889 322.9042929 322.904277 322.9042929);
    }
}


// ************************************************************************* //
