/*--------------------------------*- C++ -*----------------------------------*\
  =========                 |
  \\      /  F ield         | OpenFOAM: The Open Source CFD Toolbox
   \\    /   O peration     | Website:  https://openfoam.org
    \\  /    A nd           | Version:  7
     \\/     M anipulation  |
\*---------------------------------------------------------------------------*/
FoamFile
{
    version     2.0;
    format      ascii;
    class       scalarField;
    location    "60/lagrangian/coalCloud";
    object      age;
}
// * * * * * * * * * * * * * * * * * * * * * * * * * * * * * * * * * * * * * //


2500
(
59.86832
59.69432
59.742
59.84432
59.644
59.87072
59.69
59.65072
59.976
59.722
59.928
59.72
59.92
59.57
59.978
59.976
59.908
59.81672
59.768
59.956
59.736
59.774
59.764
59.5
59.926
59.99
59.708
59.84608
59.80408
59.524
59.592
59.64632
59.718
59.97
59.746
59.40728
59.892
59.774
59.67128
59.69872
59.61432
59.732
59.368
59.69408
59.934
59.946
59.48272
59.83928
59.95
59.68832
59.388
59.62208
59.98
59.47072
59.61328
59.712
59.774
59.38
59.334
59.68272
59.376
59.382
59.41128
59.46832
59.69008
59.568
59.832
59.942
59.22328
59.49528
59.40432
59.36
59.67632
59.552
59.344
59.45832
59.724
59.75
59.20832
59.43872
59.40608
59.68728
59.91
59.764
59.954
59.87832
59.89872
59.916
59.976
59.64408
59.928
59.88432
59.952
59.66128
59.924
59.83832
59.89272
59.756
59.746
59.93
59.65232
59.75
59.932
59.9
59.87
59.682
59.804
59.81328
59.75
59.86408
59.89032
59.552
59.84128
59.97
59.938
59.948
59.68
59.658
59.68232
59.87872
59.912
59.76
59.95
59.86728
59.972
59.992
59.812
59.772
59.76
59.696
59.58
59.568
59.99
59.60032
59.742
59.52
59.66608
59.65328
59.772
59.558
59.918
59.7
59.44608
59.586
59.83728
59.994
59.87328
59.508
59.752
59.77
59.998
59.904
59.66728
59.992
59.966
59.798
59.724
59.912
59.67728
59.944
59.62
59.80832
59.578
59.84672
59.40632
59.342
59.764
59.43328
59.528
59.478
59.45008
59.704
59.71
59.43672
59.93
59.794
59.378
59.40408
59.612
59.834
59.684
59.796
59.386
59.48032
59.586
59.40872
59.54
59.44328
59.466
59.80672
59.964
59.858
59.82128
59.944
59.83432
59.768
59.744
59.904
59.83208
59.49872
59.954
59.574
59.714
59.87608
59.712
59.522
59.88232
59.88272
59.68632
59.928
59.82008
59.954
59.642
59.81608
59.936
59.808
59.744
59.86
59.87008
59.528
59.566
59.952
59.944
59.596
59.928
59.764
59.792
59.80128
59.81272
59.852
59.464
59.51
59.46432
59.51
59.878
59.85608
59.91
59.49032
59.47832
59.49808
59.42
59.61672
59.542
59.23208
59.582
59.576
59.784
59.566
59.98
59.452
59.564
59.48608
59.85832
59.778
59.936
59.81208
59.444
59.5
59.748
59.516
59.332
59.44408
59.238
59.81408
59.64608
59.45608
59.988
59.37
59.47
59.374
59.336
59.318
59.48408
59.69032
59.52
59.952
59.64328
59.29472
59.67072
59.346
59.356
59.502
59.178
59.574
59.43008
59.546
59.24608
59.592
59.21072
59.23808
59.604
59.23728
59.67928
59.748
59.908
59.66928
59.828
59.94
59.62728
59.818
59.736
59.738
59.60728
59.984
59.906
59.754
59.738
59.91
59.84472
59.734
59.64528
59.63472
59.622
59.776
59.69608
59.86928
59.686
59.702
59.94
59.92
59.586
59.82072
59.976
59.67872
59.87728
59.66672
59.60008
59.702
59.89232
59.62832
59.766
59.712
59.44808
59.85808
59.61072
59.78
59.692
59.732
59.772
59.63
59.43208
59.528
59.704
59.714
59.822
59.63808
59.514
59.524
59.86328
59.41
59.44072
59.62672
59.44832
59.394
59.58
59.64432
59.64808
59.728
59.58
59.554
59.734
59.704
59.722
59.83072
59.554
59.29608
59.83632
59.42128
59.586
59.392
59.63672
59.47232
59.912
59.80528
59.702
59.62072
59.60072
59.83408
59.86272
59.944
59.766
59.936
59.61408
59.968
59.65
59.84208
59.68528
59.906
59.976
59.718
59.88528
59.962
59.594
59.932
59.968
59.66232
59.716
59.786
59.992
59.85528
59.632
59.84232
59.62528
59.482
59.956
59.992
59.758
59.768
59.932
59.81728
59.896
59.82328
59.62632
59.728
59.974
59.59
59.994
59.84072
59.788
59.82208
59.94
59.666
59.44872
59.998
59.89432
59.758
59.46528
59.904
59.754
59.72
59.992
59.942
59.81232
59.64008
59.536
59.49472
59.704
59.762
59.588
59.88872
59.916
59.66472
59.80272
59.526
59.83128
59.60672
59.94
59.56
59.82032
59.382
59.46072
59.564
59.688
59.64472
59.678
59.49008
59.41608
59.92
59.592
59.42072
59.792
59.706
59.62128
59.726
59.65272
59.826
59.566
59.914
59.404
59.722
59.62328
59.302
59.88728
59.43032
59.526
59.972
59.98
59.536
59.902
59.29232
59.46408
59.962
59.784
59.922
59.87408
59.726
59.73
59.996
59.598
59.65872
59.89
59.964
59.83472
59.87032
59.78
59.922
59.60608
59.68032
59.782
59.81928
59.87472
59.914
59.79
59.65808
59.60128
59.67032
59.57
59.582
59.86872
59.49832
59.79
59.912
59.61272
59.708
59.89408
59.82608
59.654
59.45
59.922
59.49632
59.83808
59.656
59.578
59.85032
59.67528
59.704
59.592
59.82528
59.80072
59.572
59.68928
59.528
59.986
59.65672
59.982
59.65208
59.514
59.718
59.794
59.85728
59.66432
59.61528
59.7
59.616
59.554
59.55
59.598
59.544
59.63728
59.94
59.746
59.81832
59.732
59.76
59.82272
59.844
59.712
59.966
59.558
59.504
59.308
59.548
59.906
59.56
59.576
59.538
59.558
59.65528
59.512
59.754
59.504
59.542
59.89128
59.78
59.65608
59.516
59.46472
59.51
59.798
59.534
59.994
59.81528
59.60928
59.69632
59.518
59.572
59.792
59.542
59.796
59.988
59.762
59.52
59.85472
59.82232
59.84832
59.74
59.938
59.69928
59.60872
59.864
59.578
59.914
59.83528
59.866
59.758
59.63072
59.74
59.918
59.98
59.80632
59.62272
59.766
59.916
59.902
59.962
59.97
59.924
59.83232
59.984
59.756
59.512
59.546
59.562
59.61832
59.62608
59.42032
59.594
59.61208
59.44008
59.48472
59.512
59.47408
59.86072
59.58
59.81032
59.796
59.48832
59.42632
59.662
59.752
59.738
59.934
59.42808
59.584
59.598
59.60832
59.768
59.42408
59.85272
59.44632
59.978
59.648
59.42872
59.55
59.786
59.362
59.34
59.99
59.21128
59.544
59.624
59.49728
59.47208
59.47872
59.25008
59.38
59.572
59.67232
59.45432
59.504
59.40072
59.926
59.89728
59.872
59.994
59.788
59.87632
59.816
59.76
59.91
59.744
59.974
59.81432
59.66528
59.958
59.904
59.968
59.85328
59.92
59.83608
59.898
59.956
59.984
59.89928
59.862
59.788
59.89208
59.67832
59.762
59.978
59.922
59.902
59.842
59.958
59.87808
59.61608
59.778
59.73
59.64832
59.538
59.598
59.752
59.74
59.558
59.97
59.914
59.89832
59.948
59.926
59.72
59.594
59.83272
59.706
59.908
59.734
59.398
59.45328
59.986
59.98
59.582
59.562
59.748
59.80208
59.88
59.714
59.67008
59.996
59.782
59.62008
59.596
59.72
59.83672
59.456
59.86672
59.88608
59.54
59.774
59.974
59.46232
59.706
59.938
59.982
59.522
59.792
59.384
59.42272
59.47528
59.432
59.344
59.64232
59.556
59.45728
59.708
59.738
59.376
59.66808
59.66872
59.388
59.788
59.80872
59.544
59.88808
59.64128
59.65728
59.86208
59.762
59.74
59.80232
59.79
59.89672
59.924
59.71
59.888
59.994
59.786
59.80008
59.744
59.772
59.84008
59.69832
59.998
59.996
59.88472
59.588
59.88632
59.916
59.88032
59.87272
59.954
59.87208
59.78
59.874
59.784
59.87128
59.854
59.886
59.88328
59.89328
59.60272
59.97
59.868
59.906
59.89008
59.972
59.80608
59.912
59.594
59.87432
59.63928
59.664
59.62872
59.672
59.732
59.574
59.85
59.966
59.60472
59.88832
59.68432
59.676
59.57
59.984
59.79
59.83328
59.988
59.85928
59.926
59.66032
59.556
59.87528
59.57
59.982
59.93
59.782
59.904
59.596
59.55
59.81472
59.934
59.73
59.81808
59.86432
59.906
59.62472
59.88672
59.64208
59.66
59.794
59.722
59.65832
59.95
59.986
59.64928
59.638
59.742
59.518
59.61472
59.562
59.568
59.916
59.754
59.80472
59.89608
59.962
59.69528
59.88072
59.524
59.67
59.68608
59.96
59.996
59.784
59.958
59.966
59.806
59.63208
59.724
59.84928
59.778
59.81632
59.582
59.88008
59.61232
59.67408
59.698
59.952
59.85432
59.922
59.996
59.606
59.93
59.938
59.798
59.88408
59.55
59.948
59.636
59.766
59.56
59.48328
59.86632
59.952
59.41008
59.41472
59.926
59.908
59.726
59.61032
59.668
59.752
59.754
59.374
59.706
59.42432
59.85072
59.60408
59.794
59.988
59.472
59.65472
59.302
59.372
59.83008
59.47472
59.986
59.42608
59.502
59.42832
59.5
59.894
59.796
59.336
59.42008
59.322
59.41728
59.746
59.982
59.64728
59.316
59.89808
59.47432
59.32
59.62408
59.408
59.924
59.44032
59.398
59.522
59.556
59.424
59.362
59.20128
59.40472
59.392
59.75
59.69208
59.82728
59.62808
59.66832
59.45272
59.742
59.67472
59.82408
59.85128
59.788
59.99
59.47328
59.718
59.86808
59.824
59.80728
59.49408
59.734
59.85872
59.942
59.738
59.918
59.716
59.85408
59.84632
59.9
59.936
59.902
59.83
59.972
59.96
59.82928
59.902
59.67208
59.776
59.948
59.578
59.574
59.736
59.368
59.924
59.708
59.73
59.43832
59.45032
59.84728
59.65128
59.69808
59.60528
59.42232
59.53
59.48872
59.82808
59.96
59.554
59.576
59.69672
59.406
59.566
59.486
59.646
59.776
59.938
59.974
59.84032
59.836
59.968
59.746
59.958
59.63608
59.598
59.67808
59.44272
59.49208
59.49232
59.722
59.68472
59.526
59.322
59.376
59.45408
59.68872
59.27928
59.68008
59.63872
59.344
59.838
59.978
59.396
59.46632
59.57
59.386
59.42728
59.87928
59.398
59.602
59.382
59.304
59.48208
59.194
59.40328
59.554
59.984
59.9
59.778
59.726
59.86528
59.736
59.986
59.77
59.964
59.802
59.918
59.82672
59.62032
59.592
59.998
59.95
59.66272
59.67672
59.88928
59.758
59.82872
59.85008
59.946
59.694
59.782
59.68072
59.796
59.914
59.64072
59.918
59.81128
59.934
59.748
59.946
59.932
59.724
59.726
59.758
59.87232
59.946
59.948
59.86128
59.944
59.714
59.25872
59.876
59.728
59.7
59.634
59.908
59.61
59.85232
59.762
59.596
59.82432
59.442
59.68128
59.65432
59.706
59.99
59.60808
59.86608
59.85632
59.42672
59.60232
59.95
59.91
59.382
59.82632
59.556
59.81872
59.84528
59.964
59.772
59.402
59.42328
59.542
59.536
59.89528
59.764
59.766
59.33
59.49
59.46128
59.552
59.934
59.552
59.78
59.69072
59.62928
59.40928
59.538
59.44528
59.67608
59.756
59.68808
59.41528
59.66408
59.43632
59.89472
59.354
59.782
59.584
59.928
59.41408
59.65408
59.516
59.794
59.956
59.27032
59.21008
59.144
59.276
59.40128
59.304
59.66632
59.398
59.506
59.534
59.124
59.45672
59.582
59.20528
59.354
59.322
59.23
59.282
59.60632
59.152
59.436
59.25408
59.84
59.25128
59.61632
59.198
59.48
59.59
59.07808
59.06272
59.71
59.518
59.744
59.28072
59.47008
59.21272
59.308
59.126
59.326
59.24208
59.544
59.29272
59.53
59.184
59.05208
59.28808
59.158
59.114
59.128
59.24872
59.122
59.59
59.308
59.166
59.21528
59.14
59.386
59.364
59.20872
59.48232
59.422
59.552
59.998
59.28832
59.536
59.53
59.814
59.69472
59.358
59.62232
59.45928
59.756
59.328
59.9
59.24008
59.516
59.41672
59.584
59.69328
59.564
59.65928
59.28472
59.502
59.7
59.81072
59.168
59.306
59.26008
59.63032
59.39
59.41032
59.20432
59.47032
59.60208
59.314
59.27072
59.332
59.204
59.324
59.20328
59.982
59.23472
59.83032
59.446
59.978
59.756
59.40032
59.468
59.21032
59.04328
59.04808
59.00232
59.49672
59.07408
59.142
59.526
59.186
59.372
59.26728
59.348
59.338
59.06432
59.27272
59.23872
59.118
59.312
59.166
59.24672
59.164
59.44128
59.45208
59.288
59.24408
59.15
59.43928
59.08672
59.334
59.334
59.392
59.49328
59.366
59.25208
59.368
59.418
59.27528
59.392
59.40232
59.548
59.26608
59.376
59.566
59.318
59.134
59.508
59.176
59.568
59.27608
59.25672
59.426
59.08608
59.196
59.114
59.962
59.84272
59.43808
59.21
59.52
59.096
59.36
59.146
59.972
59.26808
59.164
59.63272
59.272
59.23408
59.222
59.5
59.736
59.23232
59.22
59.196
59.116
59.352
59.148
59.144
59.372
59.28728
59.162
59.12
59.158
59.28872
59.104
59.702
59.03328
59.22072
59.14
59.128
59.66072
59.318
59.302
59.25432
59.13
59.11
59.394
59.058
59.178
59.31
59.06672
59.118
59.11
59.24728
59.378
59.14
59.174
59.652
59.25328
59.23328
59.69128
59.71
59.40808
59.506
59.84328
59.61808
59.9
59.41432
59.378
59.39
59.43408
59.316
59.44928
59.968
59.7
59.81008
59.106
59.378
59.65632
59.932
59.348
59.54
59.178
59.67432
59.46808
59.82832
59.55
59.346
59.154
59.576
59.708
59.68208
59.29008
59.512
59.388
59.37
59.122
59.532
59.27672
59.504
59.24808
59.434
59.572
59.104
59.59
59.26072
59.41808
59.458
59.342
59.49072
59.45072
59.16
59.162
59.20408
59.04232
59.156
59.23832
59.47632
59.232
59.17
59.182
59.40832
59.44
59.83872
59.946
59.68328
59.492
59.59
59.85672
59.954
59.63408
59.368
59.39
59.96
59.38
59.548
59.742
59.336
59.58
59.43472
59.48072
59.484
59.64872
59.462
59.35
59.48128
59.574
59.372
59.748
59.46328
59.532
59.586
59.966
59.544
59.33
59.39
59.558
59.08872
59.156
59.21728
59.178
59.364
59.41072
59.346
59.132
59.41872
59.338
59.224
59.354
59.40272
59.184
59.146
59.12
59.26232
59.278
59.578
59.716
59.29208
59.156
59.20008
59.366
59.41328
59.41832
59.01328
59.02608
59.05832
59.358
59.778
59.956
59.172
59.43232
59.27408
59.22928
59.334
59.338
59.26432
59.194
59.41272
59.614
59.22632
59.46872
59.292
59.49608
59.526
59.93
59.528
59.43128
59.262
59.776
59.542
59.584
59.124
59.374
59.364
59.564
59.27472
59.166
59.27
59.514
59.988
59.21928
59.556
59.792
59.132
59.69272
59.348
59.728
59.82
59.798
59.534
59.43528
59.524
59.488
59.386
59.48928
59.19
59.23608
59.28408
59.112
59.116
59.06208
59.29728
59.234
59.29032
59.3
59.356
59.338
59.136
59.388
59.504
59.396
59.45128
59.86232
59.47928
59.44672
59.87672
59.01808
59.00008
59.08928
59.018
59.108
59.344
59.09832
59.02928
59.47728
59.148
59.20808
59.00608
59.328
59.144
59.13
59.25608
59.00808
59.37
59.148
59.61128
59.412
59.46032
59.27808
59.45472
59.47608
59.86008
59.538
59.324
59.27872
59.388
59.44432
59.522
59.328
59.358
59.69232
59.33
59.182
59.196
59.26472
59.184
59.43072
59.716
59.362
59.14
59.33
59.34
59.396
59.338
59.156
59.54
59.26632
59.176
59.846
59.594
59.316
59.188
59.46208
59.25528
59.65032
59.306
59.206
59.352
59.186
59.326
59.32
59.44728
59.25072
59.45632
59.21408
59.166
59.22472
59.186
59.366
59.25232
59.20232
59.162
59.29872
59.05928
59.24832
59.724
59.176
59.438
59.27128
59.396
59.628
59.674
59.45808
59.534
59.35
59.576
59.37
59.496
59.46272
59.342
59.43272
59.506
59.374
59.518
59.856
59.786
59.86472
59.396
59.752
59.384
59.69728
59.40208
59.48008
59.84408
59.346
59.502
59.154
59.48528
59.61008
59.474
59.88208
59.27208
59.136
59.626
59.84808
59.36
59.394
59.25808
59.22608
59.354
59.324
59.348
59.362
59.322
59.20632
59.942
59.366
59.352
59.274
59.126
59.508
59.326
59.25
59.102
59.21632
59.61872
59.22872
59.02328
59.352
59.26872
59.202
59.08728
59.47808
59.336
59.03408
59.06232
59.18
59.22672
59.112
59.03208
59.12
59.136
59.66208
59.324
59.02
59.51
59.53
59.63232
59.774
59.80328
59.548
59.786
59.88128
59.46608
59.81
59.588
59.494
59.588
59.64272
59.728
59.25928
59.61928
59.22432
59.63632
59.564
59.67272
59.80032
59.43432
59.63832
59.45232
59.734
59.65008
59.89632
59.702
59.68408
59.89072
59.732
59.21472
59.47128
59.44208
59.562
59.79
59.77
59.974
59.312
59.96
59.506
59.312
59.43608
59.84872
59.28
59.286
59.318
59.19
59.514
59.77
59.248
59.112
59.29328
59.372
59.85208
59.64672
59.15
59.24072
59.28432
59.68672
59.142
59.182
59.14
59.05728
59.1
59.22232
59.364
59.302
59.25272
59.28528
59.236
59.20728
59.43728
59.00528
59.52
59.07832
59.54
59.00272
59.27632
59.506
59.24328
59.346
59.322
59.532
59.384
59.48632
59.314
59.25632
59.798
59.41208
59.546
59.56
59.35
59.23128
59.374
59.156
59.536
59.314
59.548
59.49928
59.26272
59.32
59.378
59.718
59.80808
59.22808
59.352
59.326
59.572
59.524
59.24928
59.44472
59.358
59.3
59.168
59.16
59.174
59.392
59.24
59.24528
59.884
59.66008
59.26672
59.208
59.142
59.46008
59.29408
59.23928
59.24128
59.61728
59.316
59.26928
59.17
59.31
59.314
59.41232
59.146
59.184
59.154
59.164
59.19
59.162
59.168
59.21232
59.448
59.45528
59.39
59.27832
59.942
59.304
59.36
59.51
59.618
59.64
59.35
59.336
59.29432
59.176
59.28672
59.194
59.188
59.596
59.454
59.48808
59.49272
59.80432
59.21208
59.3
59.45872
59.36
59.268
59.508
59.20608
59.40528
59.22528
59.198
59.266
59.66328
59.23432
59.562
59.714
59.958
59.384
59.43
59.02832
59.02808
59.214
59.17
59.306
59.48432
59.306
59.38
59.25032
59.196
59.37
59.21608
59.188
59.192
59.164
59.134
59.366
59.264
59.26032
59.23008
59.27008
59.26408
59.29
59.134
59.04872
59.67328
59.22032
59.49128
59.48728
59.064
59.01528
59.25728
59.312
59.03128
59.41928
59.20472
59.398
59.00832
59.04432
59.40672
59.26528
59.308
59.522
59.394
59.608
59.5
59.40008
59.63328
59.22408
59.75
59.512
59.26208
59.368
59.86032
59.28928
59.964
59.46728
59.53
59.72
59.776
59.326
59.47272
59.24272
59.332
59.332
59.62432
59.784
59.28232
59.46672
59.28272
59.312
59.518
59.74
59.314
59.21872
59.508
59.26328
59.502
59.63008
59.17
59.162
59.26128
59.712
59.324
59.118
59.172
59.29808
59.31
59.332
59.34
59.416
59.46928
59.516
59.92
59.47672
59.77
59.532
59.538
59.13
59.182
59.328
59.384
59.382
59.848
59.24032
59.44232
59.132
59.5
59.60328
59.00928
59.174
59.138
59.06032
59.19
59.284
59.138
59.63432
59.03232
59.328
59.716
59.258
59.102
59.07
59.142
59.01272
59.05408
59.056
59.128
59.09608
59.08832
59.298
59.07728
59.124
59.09328
59.00408
59.364
59.02408
59.02472
59.062
59.06928
59.07928
59.17
59.09408
59.06872
59.23528
59.104
59.04672
59.136
59.316
59.3
59.03632
59.05432
59.296
59.154
59.132
59.08408
59.144
59.09928
59.25832
59.28608
59.152
59.046
59.18
59.1
59.24632
59.164
59.06832
59.1
59.49432
59.02232
59.01672
59.20072
59.03432
59.252
59.05072
59.514
59.376
59.028
59.46
59.04032
59.29672
59.16
59.09032
59.08472
59.03808
59.04128
59.124
59.194
59.20928
59.152
59.08008
59.06128
59.08808
59.07232
59.18
59.568
59.05608
59.29632
59.026
59.05328
59.148
59.084
59.03528
59.01
59.82472
59.56
59.08328
59.09
59.134
59.26
59.04928
59.11
59.32
59.00672
59.034
59.11
59.04472
59.03008
59.04
59.02432
59.09272
59.00728
59.05472
59.05632
59.04208
59.074
59.03272
59.118
59.01608
59.054
59.102
59.04272
59.01832
59.078
59.38
59.532
59.116
59.09728
59.148
59.05272
59.104
59.534
59.28032
59.01408
59.01872
59.342
59.354
59.102
59.154
59.11
59.07432
59.06328
59.086
59.09072
59.1
59.094
59.032
59.07072
59.29072
59.122
59.03
59.172
59.168
59.04728
59.012
59.036
59.186
59.3
59.158
59.116
59.03672
59.05232
59.428
59.28208
59.01032
59.07672
59.19
59.42208
59.20272
59.06008
59.02032
59.06608
59.768
59.142
59.07272
59.41632
59.02208
59.07208
59.166
59.18
59.05032
59.01632
59.09632
59.038
59.20208
59.476
59.048
59.06728
59.03072
59.05008
59.172
59.21328
59.34
59.08232
59.01472
59.192
59.246
59.152
59.29832
59.02128
59.02528
59.116
59.334
59.25472
59.06808
59.22008
59.27232
59.09672
59.18
59.128
59.106
59.06
59.126
59.356
59.188
59.108
59.12
59.02672
59.112
59.108
59.22208
59.15
59.112
59.00208
59.08272
59.03872
59.00472
59.00072
59.01728
59.05872
59.01128
59.21432
59.34
59.04528
59.07632
59.06408
59.02728
59.05808
59.138
59.072
59.092
59.104
59.08528
59.108
59.09528
59.00032
59.21672
59.26832
59.244
59.174
59.218
59.172
59.23632
59.144
59.126
59.27432
59.192
59.04072
59.3
59.02072
59.09232
59.106
59.06472
59.386
59.16
59.146
59.318
59.184
59.03472
59.168
59.106
59.106
59.00872
59.356
59.042
59.01072
59.356
59.02272
59.1
59.9
59.006
59.124
59.158
59.04632
59.302
59.04832
59.098
59.122
59.06072
59.05672
59.016
59.42928
59.936
59.022
59.146
59.01928
59.212
59.178
59.08128
59.13
59.28128
59.71
59.64032
59.08432
59.02008
59.04008
59.114
59.024
59.03608
59.00128
59.07872
59.05128
59.7
59.06528
59.22832
59.082
59.28328
59.152
59.158
59.02872
59.23272
59.216
59.584
59.24432
59.09208
59.23072
59.114
59.00432
59.08208
59.48672
59.21832
59.358
59.192
59.28632
59.20032
59.01208
59.27728
59.07128
59.07608
59.09128
59.044
59.33
59.03728
59.20672
59.128
59.126
59.348
59.63128
59.60432
59.174
59.228
59.132
59.294
59.136
59.192
59.06632
59.00632
59.304
59.28008
59.08032
59.24232
59.22128
59.08632
59.29128
59.42472
59.27328
59.03032
59.182
59.362
59.588
59.002
59.256
59.02632
59.09872
59.13
59.008
59.03832
59.066
59.188
59.1
59.21808
59.09008
59.342
59.23672
59.242
59.122
59.108
59.16
59.306
59.176
59.00328
59.052
59.198
59.32
59.08
59.546
59.546
59.73
59.134
59.09472
59.03928
59.29928
59.138
59.198
59.004
59.196
59.186
59.194
59.05
59.05528
59.394
59.42528
59.63528
59.01008
59.07528
59.07032
59.23032
59.31
59.15
59.35
59.114
59.24472
59.226
59.09432
59.308
59.304
59.29528
59.198
59.498
59.04408
59.102
59.882
59.07472
59.076
59.22728
59.344
59.414
59.12
59.22272
59.254
59.09808
59.118
59.088
59.80928
59.76
59.01432
59.014
59.15
59.04608
59.01232
59.08072
59.07328
59.31
59.138
59.07008
59.068
)


// ************************************************************************* //
