/*--------------------------------*- C++ -*----------------------------------*\
  =========                 |
  \\      /  F ield         | OpenFOAM: The Open Source CFD Toolbox
   \\    /   O peration     | Website:  https://openfoam.org
    \\  /    A nd           | Version:  7
     \\/     M anipulation  |
\*---------------------------------------------------------------------------*/
FoamFile
{
    version     2.0;
    format      ascii;
    class       vectorField;
    location    "60/lagrangian/coalCloud";
    object      angularMomentum;
}
// * * * * * * * * * * * * * * * * * * * * * * * * * * * * * * * * * * * * * //


2500
(
(-1.773426814e-09 -1.184328394e-09 1.016937858e-09)
(-3.878428168e-10 7.765567474e-11 1.076927969e-10)
(2.97179185e-09 -1.447127755e-09 7.570934086e-10)
(-3.576268537e-09 3.867653317e-11 -5.046621251e-10)
(7.497875884e-10 1.706567076e-10 -1.171316066e-09)
(2.17687061e-09 -4.984987092e-11 1.414865463e-10)
(-1.938705931e-09 1.522400653e-09 -8.730022909e-10)
(-5.040400729e-09 5.516295884e-09 1.118814706e-09)
(-1.659250336e-09 -1.20398152e-10 -1.616787571e-09)
(3.864495408e-10 -1.290951869e-10 1.11740665e-09)
(-9.298655695e-12 1.972112222e-09 -9.015253e-10)
(-3.137487764e-11 3.707219978e-09 2.343271578e-10)
(9.693951013e-11 -1.115264564e-09 -5.439170731e-10)
(-4.856065106e-10 1.2450689e-09 9.153027059e-11)
(9.425141787e-10 3.554581467e-10 -7.548926527e-10)
(1.552837554e-09 -2.07487585e-09 -6.96964951e-10)
(-3.559179773e-09 -2.565520749e-09 4.746167638e-10)
(1.086137911e-09 6.496283464e-10 -7.407000848e-10)
(5.296700963e-11 2.556344541e-09 -3.043918851e-10)
(2.561794706e-09 -2.574915498e-10 9.28013142e-10)
(1.671822715e-09 2.151904044e-09 1.686732419e-10)
(5.579936245e-09 -1.04573572e-09 4.572896342e-10)
(5.254080106e-10 -1.721842849e-10 -4.184425936e-10)
(-4.406954963e-09 -2.271728474e-09 -1.005291197e-10)
(1.795492414e-09 -9.627875077e-11 -1.645465759e-09)
(-3.637186859e-10 3.116096924e-09 -2.005674852e-09)
(-1.772138599e-09 -4.166363999e-10 -5.800549059e-10)
(-4.150269089e-09 -3.038866676e-11 1.256449842e-09)
(1.622594177e-09 2.383049463e-09 -9.811364658e-10)
(-8.86244043e-10 1.772364811e-09 7.541131735e-10)
(-1.851106425e-09 2.713866124e-09 1.423264137e-09)
(-1.804002559e-11 1.632975251e-09 -2.730457084e-10)
(-2.793461362e-09 -6.779723165e-10 -3.730453121e-10)
(5.947133312e-10 -1.12069939e-09 -8.929471885e-10)
(7.283715683e-10 5.465108856e-11 -5.993651821e-10)
(-1.155941444e-09 -2.496818801e-09 -7.894216612e-10)
(1.3668312e-09 -1.868103989e-09 1.242210469e-09)
(9.83037729e-10 -7.166164376e-11 1.561594598e-09)
(-8.449433169e-10 -1.686542898e-09 8.379557024e-10)
(8.248866725e-10 -4.12482031e-10 1.364133151e-10)
(-2.455418133e-10 -5.612528681e-10 3.789351136e-10)
(3.792521223e-11 1.59091142e-09 -7.455984579e-10)
(1.411967404e-09 4.627061576e-09 -6.371618809e-10)
(-4.146904919e-10 2.018194964e-10 -3.451249021e-10)
(-2.301539895e-10 1.216701594e-09 -3.020541081e-10)
(-2.410771934e-10 1.788003057e-09 -9.331667271e-10)
(5.624661956e-10 1.036985506e-10 1.388242498e-09)
(-1.181259347e-09 8.550866153e-10 -9.986550397e-10)
(-2.066732823e-10 1.488440109e-09 7.223289128e-11)
(-2.313047731e-10 -5.73233362e-10 4.780891842e-10)
(2.637226094e-10 2.229491472e-10 -5.781056801e-10)
(4.909243694e-09 -7.872354207e-11 -1.270423477e-09)
(4.377993295e-10 2.929368073e-09 4.293808398e-10)
(1.835214206e-09 -1.570635183e-10 8.050351644e-10)
(-1.124633346e-09 -6.408899013e-10 2.474661222e-11)
(-1.734681344e-10 -5.218166479e-10 6.914051133e-10)
(2.039270443e-10 -1.438457347e-10 -5.222842368e-10)
(-2.806993676e-11 5.282165177e-10 1.267433886e-09)
(1.769363832e-09 -2.047901147e-09 6.055238461e-10)
(-6.503234161e-10 -1.651585759e-09 -7.679632699e-10)
(-8.928924574e-10 -1.241461054e-10 2.150658446e-11)
(4.0711647e-10 6.802168728e-10 6.887690304e-10)
(-5.361566016e-10 4.57606756e-10 -9.492450488e-10)
(2.416348134e-10 5.235853952e-10 9.178799324e-10)
(-4.809441222e-10 1.764157271e-11 -9.544478255e-10)
(-2.95791076e-10 -7.084747626e-10 2.820395332e-10)
(1.350146067e-09 1.367611123e-09 1.093659005e-09)
(-4.254602447e-10 9.850763996e-10 -2.926436514e-10)
(-1.052106908e-10 -3.532008931e-10 -2.896058892e-10)
(-5.510198234e-10 -1.021872902e-09 1.241952437e-10)
(8.982657493e-10 4.115080996e-10 -6.774832339e-10)
(-7.261724582e-10 -1.394119947e-09 4.833470799e-10)
(5.667455613e-10 1.284617466e-09 -7.569391309e-11)
(-6.681750402e-10 6.695417414e-10 8.51769213e-11)
(-8.706597663e-10 1.666448282e-10 3.966161719e-11)
(5.109589225e-10 -2.560634064e-09 6.849918283e-10)
(-9.423578345e-10 4.670823431e-10 1.866373297e-10)
(2.66642218e-10 -3.233626185e-10 8.298734044e-10)
(-9.016749367e-10 -6.979107949e-10 4.454828793e-10)
(1.827705324e-09 -2.064269961e-10 -1.01794508e-09)
(-5.264161125e-10 -4.701391677e-10 4.575150108e-10)
(-8.684977077e-10 3.632649941e-09 -5.606367461e-10)
(8.170655787e-11 -2.793392356e-09 -1.077231799e-10)
(2.45367279e-09 -1.584219186e-10 1.581444536e-09)
(3.498731128e-09 1.034574749e-09 5.846011662e-10)
(3.943853289e-09 -5.496581565e-10 -1.359160989e-09)
(-9.232046438e-10 -8.494797807e-11 -3.406708304e-10)
(2.22726875e-09 6.827005353e-11 1.184952647e-10)
(-9.210044218e-10 -8.594116123e-10 -5.617491427e-10)
(-7.305236054e-10 2.566637765e-09 -1.294979477e-10)
(4.133278965e-10 1.267735467e-09 -6.705373871e-10)
(1.116207465e-10 -4.070773506e-09 1.40248315e-09)
(4.261500875e-09 4.575131109e-10 2.091971687e-09)
(-2.59132087e-09 -2.701945845e-09 -8.990592806e-10)
(1.847334734e-09 -2.610906243e-09 -9.560154452e-10)
(-3.534476879e-11 -5.463968124e-10 5.394910724e-10)
(-1.406431795e-09 1.942454597e-09 -7.612619951e-10)
(-1.527246108e-10 -2.146669566e-10 5.4677966e-10)
(-6.201834323e-10 -4.123413799e-10 -3.949296782e-10)
(7.919538234e-10 4.941692438e-09 -4.654561632e-11)
(3.332060168e-10 -5.501954864e-09 9.715087261e-10)
(2.654233763e-09 -4.110693094e-09 1.096267158e-09)
(3.125506418e-09 1.710705552e-09 -3.709796975e-10)
(2.272829996e-09 -1.446897866e-09 -1.928996848e-09)
(-7.577188608e-10 2.90516141e-09 -6.17476374e-10)
(-4.553636933e-11 2.346522005e-10 -1.297622708e-09)
(-2.833470952e-10 -3.188183566e-09 1.534740898e-09)
(5.933750854e-10 3.40106006e-09 1.597060779e-10)
(-4.505312016e-10 -2.539731042e-09 -7.042986397e-11)
(-1.645634528e-09 2.135172193e-09 -3.270456265e-11)
(6.920442461e-10 1.248685933e-10 3.910993846e-10)
(-9.38768296e-11 2.668405006e-10 -1.07090814e-09)
(2.287011885e-09 8.657552279e-10 1.256904277e-09)
(-1.158155167e-09 7.683246352e-10 1.446009062e-09)
(9.215870494e-10 1.642249645e-09 8.425856139e-11)
(-1.159746671e-10 2.723991369e-10 1.504658517e-09)
(4.729752123e-10 -4.463350004e-10 1.554278724e-10)
(-1.311940848e-09 -9.987761041e-10 -6.983547585e-10)
(1.213481323e-09 1.936519554e-09 4.042487975e-10)
(-5.579381587e-12 -3.513967828e-09 1.116413778e-09)
(1.395540298e-10 -1.169574129e-09 -3.617294582e-10)
(7.75149735e-10 1.133010082e-10 2.858264305e-10)
(-1.355590145e-09 -9.435834745e-10 3.199575653e-10)
(-2.458790973e-09 -1.382668852e-09 1.411260661e-09)
(3.745387742e-10 2.121570012e-09 -2.657784049e-09)
(2.189241477e-09 -7.608611421e-10 1.735253195e-09)
(-2.071562943e-10 -8.869644017e-11 7.245922747e-10)
(6.05289731e-10 -1.183374046e-09 -5.295984522e-10)
(-8.596570797e-10 5.139361668e-10 1.000762663e-09)
(-1.666921759e-10 2.501816462e-10 -1.075819027e-09)
(4.274163184e-10 -3.56820283e-10 -3.401713188e-11)
(1.167278585e-09 1.338517147e-09 7.542124226e-10)
(-1.801545778e-09 -6.400984582e-10 -8.057629136e-10)
(3.168326034e-10 2.656754883e-09 1.32269083e-09)
(1.342066267e-09 -5.892529387e-10 7.359681571e-10)
(-9.625444398e-11 1.218797814e-09 -9.4853974e-10)
(9.573132742e-10 -1.419043287e-11 -1.09890008e-09)
(-1.459969595e-10 1.144984515e-09 1.118843536e-09)
(-3.585484225e-10 -2.062188203e-10 -5.020208091e-10)
(-4.690112151e-10 -1.704201735e-09 1.912263269e-10)
(-4.801679906e-10 7.422656453e-10 -1.150303007e-09)
(1.266687076e-09 -1.216418197e-09 4.048424766e-10)
(7.471373801e-10 1.568041935e-09 1.050802237e-09)
(1.007633771e-09 -1.181793636e-10 2.611855625e-10)
(-2.223362169e-09 -1.472401983e-09 -1.194658367e-09)
(-9.652773083e-11 2.266772309e-09 2.524060958e-09)
(3.626721406e-10 4.209722771e-10 -7.226350821e-10)
(8.09821344e-10 1.604667482e-09 -5.268618361e-10)
(-2.136550057e-09 -1.435836581e-09 4.135176981e-10)
(3.256474131e-11 -7.275682058e-10 -4.620562996e-10)
(-2.396959248e-09 6.747565184e-11 2.528199951e-10)
(-7.143260396e-10 -7.778175104e-10 3.56273014e-10)
(-6.715952764e-10 -1.197983154e-09 1.32068988e-09)
(-1.663626954e-09 -2.833102302e-10 1.372709788e-09)
(1.481999887e-09 9.783231417e-10 9.902134531e-10)
(4.553856504e-10 -6.373907975e-11 1.729984629e-10)
(7.924396039e-11 7.035110523e-10 2.666932018e-10)
(4.413386476e-10 -5.252482463e-10 3.3410188e-10)
(-1.506979324e-09 2.81848614e-09 -1.797862598e-10)
(8.250303784e-10 1.182644835e-09 2.109361032e-10)
(1.073113639e-10 2.738564707e-10 1.40486716e-09)
(1.073016157e-09 -7.350641593e-11 -3.81251029e-10)
(-1.692731548e-10 -4.364001157e-10 4.694741741e-10)
(3.688248202e-10 -3.465738371e-10 1.124776798e-10)
(-4.632894863e-10 2.127546648e-10 -1.06810556e-10)
(1.261350838e-10 -3.778487403e-10 -4.991252452e-10)
(-2.412952557e-10 -1.800589045e-10 3.936063508e-10)
(-1.945753303e-10 -1.02640498e-10 -8.699373796e-10)
(5.444429923e-11 -3.14884851e-10 2.360019051e-10)
(-3.851560186e-10 5.503978892e-10 -5.510119657e-10)
(5.15323328e-10 -5.183144841e-10 8.781953051e-10)
(9.647488634e-10 6.116940783e-10 8.858192281e-11)
(9.157401687e-10 6.434366234e-10 -8.708531106e-10)
(3.208250685e-10 -2.437789454e-10 2.202393194e-11)
(-1.864486188e-09 9.732860398e-11 6.29021714e-10)
(-1.184941853e-09 -2.536575987e-10 -8.974388258e-10)
(2.276197846e-10 2.784628274e-10 -4.85556119e-10)
(-9.595772167e-10 4.064002471e-10 -6.397177675e-10)
(-4.088065424e-10 4.191654968e-11 6.604459285e-10)
(-1.257844474e-09 8.117555581e-10 -3.267642697e-10)
(-4.974806173e-11 6.516685058e-10 -4.142624473e-11)
(-2.176532415e-09 -1.211507756e-09 -2.516187907e-11)
(9.202707508e-10 -3.384837857e-11 7.394878082e-10)
(1.863606381e-09 3.210339711e-10 -1.104266213e-10)
(-5.264073599e-11 3.685362298e-10 -7.321925988e-10)
(-5.487670332e-10 -1.229832441e-09 2.676142349e-10)
(4.230529593e-10 -1.055803001e-10 -3.6679424e-10)
(-8.903252786e-10 1.590916869e-09 -1.186326055e-09)
(-4.646014076e-10 8.89807698e-11 -1.0973118e-09)
(7.789403932e-10 1.089773692e-09 -6.069827212e-10)
(3.671118114e-10 2.535405605e-10 -5.763109865e-10)
(1.766737568e-11 -1.913817519e-09 4.976002686e-10)
(1.347106299e-09 9.441877754e-10 -2.516847648e-09)
(1.495173287e-09 1.551536387e-09 1.460985962e-09)
(-5.96456026e-09 3.328142334e-09 2.923297543e-09)
(2.056438431e-09 5.080569946e-09 -3.7048942e-09)
(1.482240073e-09 -6.456161476e-10 1.716676046e-09)
(-1.100522805e-09 -3.557527283e-09 5.993222298e-10)
(5.855822818e-09 1.982083262e-09 1.482178494e-09)
(9.421610013e-10 2.927738625e-09 -2.006015971e-09)
(1.329079267e-09 -2.694004636e-10 -1.252561854e-09)
(-1.301221658e-09 9.948888135e-10 1.008357566e-09)
(-8.746704319e-09 -8.136736639e-09 2.160081204e-09)
(6.660089064e-09 -8.952434075e-10 -8.308619152e-10)
(2.833974807e-10 2.672232421e-11 1.522348916e-09)
(-1.311110013e-09 2.277708896e-09 1.145511404e-10)
(2.381657977e-10 -8.812319858e-11 -5.092063061e-10)
(-3.417114446e-09 3.791396567e-09 -1.002675171e-11)
(-1.723547353e-10 -2.677031047e-09 1.925029636e-10)
(9.201472071e-10 4.261693688e-11 1.19864147e-09)
(-1.417467293e-09 -2.221469836e-09 1.577623843e-11)
(5.123081317e-09 -2.398242391e-09 1.00371486e-12)
(-2.248104335e-10 -5.681560754e-12 4.78572797e-10)
(-3.218375127e-10 -1.053229841e-09 1.293924924e-09)
(8.347859756e-10 1.856074081e-09 -2.592220804e-10)
(2.169868887e-09 -3.940384144e-11 9.316728063e-11)
(8.166241542e-10 -1.936496429e-09 7.180602694e-11)
(-4.030927577e-10 5.692637201e-09 7.363334345e-10)
(-6.382167137e-10 1.404824238e-09 3.292941323e-10)
(-3.640669173e-09 3.138581437e-09 -9.470647478e-10)
(2.279381577e-09 -4.497289258e-10 2.106952962e-09)
(-1.564210553e-09 1.51252594e-09 -1.057091723e-09)
(1.892515463e-09 -1.932443183e-09 -8.079648384e-11)
(9.200575461e-11 7.661935774e-10 5.626543221e-10)
(7.031660808e-10 -4.597410674e-09 -1.346459974e-09)
(-4.310168947e-11 -6.052651155e-09 3.497378049e-10)
(-8.975569763e-10 -1.213545834e-09 1.752239583e-10)
(-1.53319558e-09 9.196110374e-10 -2.693306434e-10)
(6.493233007e-10 6.298197123e-10 6.591520614e-10)
(1.10781897e-09 4.35629643e-10 1.187405914e-09)
(6.065599863e-10 -8.603597229e-11 -8.499205787e-11)
(-1.684085887e-09 9.929059841e-10 -1.241155221e-10)
(1.177951038e-09 -1.72312055e-10 -6.882825629e-10)
(-9.280104948e-10 -1.412239149e-09 -5.994431556e-10)
(2.643478723e-09 -3.122475782e-09 -7.134594856e-10)
(-8.483437612e-11 1.007190633e-09 -8.802304015e-10)
(4.602232725e-09 3.417679604e-09 -4.427125896e-10)
(3.337592518e-10 1.466346082e-09 -2.241134796e-10)
(-2.981196049e-09 -1.814967186e-09 -1.811457634e-09)
(1.243454485e-09 -4.726372612e-10 9.235169118e-10)
(4.115746692e-10 -1.497545946e-09 -1.588680255e-09)
(5.230040208e-11 2.692743117e-09 4.627919151e-11)
(8.347635076e-10 9.812479407e-10 -1.557917315e-09)
(-4.57508478e-09 -1.136722571e-11 -2.716092926e-10)
(6.280524758e-11 2.665559936e-09 1.591359765e-09)
(-1.485364921e-09 -2.792908168e-10 -9.382705511e-11)
(9.958536587e-10 -3.117335593e-09 5.676695067e-10)
(4.032553343e-10 2.153014497e-09 -7.986821456e-10)
(3.592730528e-10 -2.955767021e-10 -1.577324477e-09)
(4.086303813e-09 -3.228786317e-09 -4.54942837e-10)
(-7.413946509e-10 5.346051147e-10 -1.238588718e-09)
(6.254516311e-10 -1.017095706e-10 3.745048926e-10)
(-9.75476343e-10 -1.33944042e-09 3.897722835e-09)
(3.120715296e-10 2.742922333e-10 1.06780644e-09)
(-3.193068223e-10 -1.122944226e-10 -2.952429143e-10)
(-3.196914373e-10 3.124709842e-10 -1.039663652e-09)
(6.940700908e-10 1.34698667e-09 -8.47394288e-10)
(5.269707082e-10 -2.145612787e-09 -1.065382786e-09)
(7.275054546e-10 4.619775534e-10 8.245309909e-10)
(-1.291347953e-09 -2.039485867e-09 2.029710972e-09)
(-4.551794541e-10 -7.477502894e-10 -5.663903449e-10)
(5.69722707e-10 -9.704071863e-10 -8.281647942e-10)
(-4.862685954e-10 4.025454144e-10 4.715811893e-10)
(-1.164206927e-09 -5.858875888e-10 1.022382635e-09)
(2.749834446e-10 -6.715505781e-10 -1.099985923e-10)
(-1.220730154e-09 8.992636146e-10 -5.627861406e-10)
(-2.564722261e-10 4.256374262e-09 -1.902691598e-09)
(-3.165202445e-10 1.100410829e-09 7.149065844e-10)
(-7.53036489e-10 -1.949815433e-10 -5.764862491e-10)
(4.511979442e-10 -1.049251144e-09 -2.077118927e-10)
(-4.413820195e-10 -1.300410455e-09 3.706848601e-10)
(-1.454401348e-09 -1.112341715e-09 -1.069957193e-09)
(-2.522847288e-10 -1.425243083e-09 -1.959243851e-10)
(6.078262873e-10 1.473522507e-09 8.691358912e-10)
(-1.972755094e-09 7.086824429e-10 3.86160328e-10)
(3.797696918e-10 -1.828392741e-09 -2.527063214e-10)
(1.852065185e-09 1.906203817e-09 2.038297021e-09)
(-1.89288218e-09 1.248145423e-09 -9.276388733e-10)
(-1.747460861e-10 -2.955796413e-10 -7.391974216e-10)
(-1.325435354e-09 4.453021364e-10 -2.881906269e-10)
(1.671877677e-09 -1.632805186e-09 6.624005437e-10)
(-5.389712114e-10 -1.289104165e-09 -5.904826573e-10)
(-1.433362473e-09 9.542030483e-10 -4.944403505e-10)
(-3.073733789e-10 1.187401372e-09 1.145479273e-09)
(-1.831080343e-09 2.781653829e-10 1.723185158e-09)
(-1.048955439e-09 1.51192215e-10 -1.180474735e-10)
(-1.672303899e-10 -3.829806761e-10 -5.697334855e-10)
(3.499980403e-11 2.38419577e-10 -5.402903492e-10)
(-8.497191164e-10 1.822202643e-10 -3.841456929e-10)
(-2.319694025e-10 -8.131868499e-10 3.83028787e-10)
(8.554781561e-11 1.256856904e-09 1.756551676e-09)
(-1.985152775e-10 1.258622465e-10 2.128443774e-10)
(9.720052724e-10 1.995476524e-09 -6.935739705e-10)
(1.733954342e-09 1.604630531e-09 1.261100096e-09)
(-2.057859061e-09 -1.410807331e-09 9.975715727e-10)
(-7.285930262e-10 6.51027574e-10 1.284036715e-10)
(1.933699335e-09 -3.826635203e-09 5.143200686e-10)
(-9.115209276e-11 1.05838992e-09 1.077348738e-09)
(-8.729491305e-10 1.435012242e-09 -2.855054624e-09)
(4.864958266e-10 2.143823806e-09 4.555612636e-10)
(-4.605242051e-10 -2.640655187e-10 2.859136293e-10)
(-2.154281466e-09 4.004538927e-09 3.52078778e-10)
(8.703677297e-10 -1.119163263e-09 4.311779001e-10)
(1.095107899e-09 4.235070802e-10 -1.109888257e-09)
(-1.94001325e-09 8.648102655e-10 -8.945300681e-10)
(3.421793337e-10 2.165202497e-10 -1.667641087e-10)
(-3.749798519e-09 2.217188749e-09 1.038491077e-09)
(-1.918357459e-09 -2.315857281e-09 1.450021208e-10)
(2.106267416e-10 1.76235943e-09 -7.19617977e-10)
(-1.405374418e-09 1.488335083e-10 2.926876411e-10)
(-3.671746054e-09 8.317786934e-10 1.55582378e-09)
(3.120785821e-09 7.5685963e-10 -5.91397519e-11)
(8.1052093e-10 7.052805391e-10 -2.381394815e-10)
(-6.844032625e-10 -1.101655783e-09 -8.311681191e-10)
(1.355720155e-09 4.59207225e-10 -7.484864611e-10)
(-4.745112923e-09 1.03985978e-09 -3.482424668e-10)
(-8.257134086e-10 5.023705124e-10 -5.706740565e-10)
(-1.09293991e-09 -8.047341886e-10 1.46522057e-09)
(1.034429931e-10 5.71410329e-10 -1.036697267e-09)
(1.112764819e-09 -1.099394891e-09 7.821198094e-10)
(1.261940149e-09 2.467509731e-10 3.25945241e-09)
(-3.142413597e-10 6.170252384e-10 1.26813976e-09)
(-4.466656163e-10 3.70130458e-10 1.771538366e-09)
(4.721545291e-11 2.921911156e-10 -7.639742897e-10)
(-7.087627616e-10 2.268475487e-10 -1.032556762e-09)
(1.442940183e-09 -3.176634693e-09 1.682027846e-09)
(1.457378494e-11 1.573678423e-09 -1.515944296e-10)
(8.492400923e-10 1.075896534e-09 1.088101528e-10)
(2.371376686e-10 -1.116703293e-09 -1.423537632e-09)
(-2.392326567e-09 3.571908462e-09 -7.215115283e-10)
(-1.267807804e-09 -8.140474716e-10 -4.073270143e-10)
(-2.085378672e-09 -4.998221313e-10 7.410022324e-10)
(7.545528373e-10 4.346644534e-12 -9.599297937e-12)
(-1.6794322e-09 -3.705477948e-09 -3.319185533e-10)
(-1.807089844e-10 1.194795056e-10 2.67463475e-11)
(-3.349645652e-10 6.168545555e-11 7.01381117e-10)
(5.699485274e-10 1.981912713e-10 -1.052462886e-09)
(-1.349451657e-09 1.019436372e-09 -8.165606881e-10)
(-2.257751174e-10 2.410876189e-10 3.039274034e-10)
(2.301976609e-09 -3.698127058e-10 8.363963537e-10)
(1.051742142e-10 -1.786766509e-09 -1.037291526e-09)
(7.723839539e-10 8.563647425e-10 -4.218925959e-10)
(-7.117771989e-10 1.154359172e-10 1.285954676e-09)
(-7.698579427e-11 4.10338735e-10 2.191013542e-10)
(6.098627224e-10 2.396620324e-11 -9.036770683e-13)
(1.148437089e-09 1.229200495e-09 1.080183294e-09)
(4.159863049e-10 -7.290774531e-10 1.321231955e-09)
(1.12088532e-09 2.087504195e-09 -1.106465013e-09)
(2.682306866e-10 5.303801731e-10 1.842401561e-10)
(5.458769329e-10 -3.170525195e-10 1.423072961e-09)
(1.235502734e-09 8.737461003e-10 -2.048810405e-09)
(1.537144024e-09 4.826999143e-10 -6.8038745e-11)
(2.816136751e-10 3.2656771e-10 -4.661494991e-10)
(-1.226970892e-09 5.835530893e-10 -6.237397035e-10)
(-6.76256268e-10 -3.758373604e-10 -1.164496784e-09)
(4.391740417e-10 -1.416003319e-10 2.68114907e-10)
(1.093935578e-09 -4.245623583e-10 -2.370144987e-10)
(9.880734534e-10 -3.387229683e-10 -1.180837778e-09)
(-2.862738563e-09 -1.018478307e-09 1.060305704e-10)
(-6.083357564e-10 -2.006572979e-09 -1.618558885e-11)
(-4.988492426e-10 -5.912515757e-11 3.549235524e-10)
(1.163400297e-09 -9.049775851e-10 1.332213629e-09)
(6.528235315e-10 -2.438196052e-10 8.868802523e-10)
(-5.026977881e-10 -6.011442167e-10 9.961158956e-10)
(1.765425385e-10 -2.684377899e-10 1.426234716e-09)
(6.879012367e-10 -9.013912381e-11 -2.311106468e-09)
(6.432209823e-10 1.057369329e-09 9.34603518e-10)
(1.776470367e-10 1.114741627e-09 -1.541905087e-09)
(-6.000007e-10 9.139984187e-10 -1.381207862e-09)
(-9.291849958e-11 -5.959267685e-10 2.997207262e-11)
(-4.629789074e-10 4.055620044e-11 7.747479337e-10)
(-1.0624386e-10 -3.011308427e-10 8.78510423e-10)
(-1.245677021e-09 -6.615487582e-10 -7.190490053e-10)
(-1.054300529e-10 -1.332040744e-09 1.232424499e-09)
(-6.582872444e-10 1.084860001e-09 6.079214775e-10)
(6.993746217e-10 5.586964735e-10 -8.211811029e-10)
(-1.714451345e-10 1.05095765e-10 1.857463652e-09)
(-2.341530349e-09 -2.265046255e-09 -1.525498444e-09)
(-4.246329546e-09 -5.178784625e-09 6.263554695e-11)
(3.161460785e-09 -5.580818008e-10 -1.644723016e-10)
(2.635239792e-10 -6.007734105e-10 -3.157174901e-10)
(-1.520160874e-09 -4.252193527e-12 -4.645000442e-10)
(8.08859953e-10 -2.649048636e-09 -1.767811397e-10)
(-2.806654979e-10 2.868165896e-10 -4.183935753e-10)
(-3.200025672e-10 9.808628807e-10 1.167646998e-10)
(-2.274861445e-09 3.94734882e-09 4.241228388e-10)
(1.121496098e-09 -1.674403426e-09 4.995404108e-10)
(2.454507479e-09 -2.124293146e-10 1.083279316e-09)
(6.86644391e-10 -2.909586866e-10 5.160547699e-10)
(8.255544697e-10 6.542783593e-10 4.524443349e-10)
(6.583882371e-10 1.176803187e-09 -4.788402704e-10)
(8.282734589e-10 -2.914318673e-09 -5.031633896e-10)
(-8.093791129e-10 -3.013125937e-09 -6.217336475e-10)
(-7.100687482e-10 1.215932532e-09 3.249740596e-10)
(8.710146357e-10 7.005228076e-10 8.98199067e-11)
(1.711412936e-09 -5.644869449e-10 -2.391393525e-09)
(1.938253574e-09 -5.118842015e-09 -1.878071949e-10)
(-1.499113988e-09 1.39168059e-10 -4.15525124e-10)
(-1.425392447e-09 -2.02136057e-09 1.518954149e-09)
(-3.255899032e-09 4.361720696e-09 -4.785707367e-11)
(2.513628149e-09 1.457383252e-09 1.541196107e-09)
(-4.71091186e-10 1.906114666e-09 -8.419718004e-10)
(2.894623383e-09 -8.255360393e-10 4.456003749e-10)
(-2.837499621e-10 2.973055563e-10 8.055763564e-10)
(9.746256355e-10 -9.380850796e-10 -1.446738679e-10)
(-3.008401296e-10 -2.312792816e-10 5.831892269e-10)
(-9.363806969e-10 -2.313793877e-09 -7.1223696e-10)
(2.844037158e-09 7.03781952e-10 3.13530034e-10)
(1.099850008e-09 -2.602481004e-09 -4.168281739e-10)
(-2.119839759e-09 3.012615903e-09 1.543848945e-10)
(1.621057618e-09 -5.474233549e-10 -3.722593856e-10)
(-1.781166982e-09 -1.016720956e-09 3.505417557e-10)
(1.690250556e-09 -1.889652003e-10 8.541525876e-10)
(-1.664587024e-09 6.853556649e-10 -1.54722206e-10)
(4.148465054e-10 -2.150946234e-11 -1.068770271e-09)
(8.101773563e-10 7.44630067e-10 8.633400552e-10)
(-4.102475305e-10 2.959080459e-11 -6.962785315e-10)
(-8.716738207e-10 -2.045972714e-11 7.844824738e-12)
(8.379099314e-10 -1.333671751e-12 -3.204291013e-10)
(2.481108495e-10 -1.297872387e-09 -3.427995303e-10)
(-1.540558313e-09 2.038413605e-09 3.211844836e-10)
(-1.006785744e-09 1.425125384e-09 -1.874780262e-09)
(-1.39467278e-09 5.032087068e-10 -2.102665553e-10)
(-4.268436994e-10 4.826706365e-10 3.495886217e-10)
(1.59478419e-09 -9.300662503e-10 -1.064157702e-09)
(1.31043765e-09 -5.028947444e-10 -9.350406465e-10)
(-1.335511725e-11 2.3104381e-09 6.95246413e-10)
(-1.143994075e-09 -5.049544694e-10 -1.637366353e-10)
(2.158339616e-09 1.048715451e-09 1.225903271e-09)
(-1.940752656e-09 -1.49529107e-10 -7.034825571e-10)
(6.045770916e-10 -1.577141781e-09 -5.253493901e-10)
(2.592633435e-09 6.239346834e-10 7.603451695e-10)
(-7.196570328e-10 8.012280997e-10 2.19308599e-10)
(4.18449759e-10 -2.191600591e-10 -3.272816648e-10)
(1.084473504e-09 1.007122125e-10 6.189363409e-11)
(1.049074075e-09 1.817244938e-09 4.361560224e-10)
(7.626132222e-10 -1.209596497e-09 2.08668211e-10)
(-1.410502354e-09 -2.260972287e-10 3.857459546e-10)
(-1.696271355e-09 7.633924125e-10 -7.332898136e-10)
(-5.390477102e-10 -2.466491367e-10 8.922905859e-10)
(-1.873016076e-09 2.22352868e-09 4.160889081e-10)
(4.405793286e-10 1.023922185e-09 -2.326126653e-12)
(4.847897194e-09 1.022874172e-09 4.842945533e-10)
(-1.654588074e-09 6.817888697e-10 -3.276424022e-10)
(4.271994608e-10 -4.907657345e-10 -6.025058243e-10)
(1.102485632e-09 3.995097038e-10 -1.572540856e-10)
(-1.049010459e-10 1.665737897e-10 6.326015556e-10)
(-1.898109162e-10 9.902562237e-10 -9.029175707e-10)
(8.627403057e-10 -4.146753469e-10 4.81289461e-10)
(-8.483339063e-10 9.434007479e-10 3.100828284e-10)
(8.336907739e-10 -1.014651509e-09 -7.667818413e-11)
(-2.502007703e-10 1.751293255e-09 5.969815943e-10)
(-1.225043094e-09 -2.53619568e-10 -3.892784405e-10)
(1.515189642e-09 2.263466535e-10 1.364416463e-10)
(-1.567579233e-10 -7.770662722e-11 9.400405701e-10)
(3.466456064e-10 -8.07397844e-10 -6.740527731e-10)
(8.788163843e-10 -2.817692536e-10 1.087048611e-10)
(-8.692200359e-10 1.00514535e-10 1.340283261e-09)
(-1.404194614e-10 1.329152235e-10 -1.065265567e-10)
(4.356428801e-10 5.186839943e-10 9.998659072e-10)
(-1.325484932e-09 8.623051894e-10 9.497320053e-10)
(-5.949044813e-10 -3.207076315e-10 6.311820588e-10)
(1.2423009e-10 2.390172263e-10 -2.5693005e-10)
(6.362627431e-10 -3.988326404e-10 3.645567319e-10)
(-3.519234055e-10 -1.112644528e-09 1.429936439e-09)
(-4.838861992e-11 -3.706168888e-10 4.100886519e-11)
(1.306815358e-09 -9.35593435e-10 -1.013483048e-09)
(-2.075887824e-09 2.783810042e-11 -2.863766268e-10)
(9.60310087e-10 1.206371349e-10 -8.516080486e-10)
(5.900963945e-10 1.430809058e-09 -2.898086148e-10)
(-3.280603551e-10 -1.843650343e-09 1.070308578e-10)
(-7.105283513e-10 1.517058174e-09 8.449159658e-10)
(2.328123259e-10 -2.579798576e-10 9.537073546e-12)
(-7.885925384e-10 -4.021612387e-10 -1.156078447e-10)
(-4.366147488e-10 6.713732757e-11 -1.868215052e-10)
(4.138704327e-10 -1.911683357e-09 -8.889250154e-10)
(3.70704579e-10 -4.705995444e-10 5.230571667e-10)
(-2.260291468e-10 4.866773746e-10 -1.148662857e-09)
(-5.714361388e-10 -6.349935216e-10 3.564270474e-10)
(1.106376824e-09 -1.202666542e-09 6.757259003e-10)
(8.059178389e-10 -1.324833997e-09 2.992009905e-10)
(6.228672557e-10 -3.838541218e-10 -1.616912634e-10)
(-3.8800556e-09 -1.525514958e-09 3.503607411e-10)
(8.788974978e-10 2.028135901e-09 1.568559761e-11)
(4.054131387e-10 2.262456865e-09 -2.468880474e-10)
(-2.880892058e-10 1.299139987e-10 -4.743620555e-10)
(1.978704521e-09 4.150166853e-10 1.641838568e-10)
(2.348091557e-09 -2.062135708e-09 -4.536043673e-10)
(-1.762243942e-09 1.514864677e-09 -7.467725208e-10)
(6.697556172e-10 2.202701063e-09 -5.614873884e-10)
(7.148362145e-10 -1.052316958e-11 -1.228887764e-10)
(-2.796467531e-09 9.322316195e-10 -5.317502175e-10)
(1.534692503e-10 3.225017451e-09 -3.922663238e-11)
(1.741233026e-09 -2.079474093e-09 1.292657725e-09)
(-1.080071597e-09 -1.056004961e-09 -5.583206677e-10)
(4.19750438e-10 2.912735713e-09 2.281230797e-10)
(2.348731562e-10 -4.778181419e-10 1.04875517e-09)
(6.963305946e-10 -1.918731968e-09 -7.552250656e-10)
(-1.754409799e-09 8.86821122e-10 -3.252408657e-09)
(-5.441221615e-10 1.396018984e-09 -4.733013496e-10)
(-5.154727916e-10 1.094207069e-09 2.73519419e-10)
(2.590975361e-09 -5.087470237e-09 -4.991760174e-10)
(1.706323302e-09 4.749872092e-11 1.176127262e-09)
(9.846872046e-10 -1.521948288e-09 2.693953957e-10)
(2.962678626e-09 3.258606734e-10 9.031689397e-10)
(-1.061198907e-10 -6.068790514e-10 -1.527377074e-10)
(1.113023045e-09 -1.072713739e-09 -7.992471419e-11)
(7.064968628e-10 -4.612827719e-10 -1.523070711e-09)
(-8.741330563e-10 -1.88635705e-09 1.513998407e-10)
(2.776301736e-09 1.773419675e-09 -6.341611244e-09)
(-6.156975302e-10 1.563315943e-09 1.360329194e-10)
(7.392191678e-10 -4.029777243e-10 -2.778663935e-09)
(-1.516715838e-09 7.676978789e-10 -1.518820329e-10)
(-3.130788364e-09 -2.852537052e-10 5.607319015e-10)
(-3.751159881e-09 -3.772966645e-09 -1.468133035e-10)
(2.104923195e-10 1.449432616e-09 -7.580237936e-10)
(6.303782507e-10 -1.882282783e-10 -3.637560074e-10)
(2.252444148e-09 2.563489419e-09 2.775220582e-10)
(-2.633864962e-09 6.155999568e-11 3.700649044e-10)
(2.368641194e-09 1.635675622e-09 -1.38024329e-09)
(2.464418952e-10 1.122371673e-10 -2.95240016e-10)
(-1.328067699e-09 -1.399948839e-09 -1.594492573e-11)
(3.554062197e-10 5.987569335e-10 2.92672431e-10)
(8.247227721e-10 3.697606789e-11 4.234426954e-10)
(3.917278728e-10 8.318671681e-11 -1.054360155e-09)
(-1.652784307e-09 -1.721438347e-09 -8.740859997e-10)
(1.260828276e-10 2.794827453e-10 -2.858801851e-10)
(2.187176092e-09 -1.909681779e-10 -1.11224817e-09)
(-7.854144654e-10 1.379823707e-09 8.504514355e-10)
(-7.941814854e-10 -5.05322984e-10 7.272909005e-11)
(7.500232692e-10 8.530863823e-10 5.478475513e-10)
(2.116241352e-09 1.063624412e-09 1.644203881e-09)
(-1.651674287e-10 -2.496784819e-09 1.432572393e-10)
(-9.460638893e-10 9.153309306e-10 1.015453248e-09)
(7.030951544e-11 4.04427889e-09 1.305191533e-09)
(-2.217047241e-10 -1.249054827e-09 -9.84867886e-10)
(2.811260344e-10 1.376824001e-09 8.591801632e-10)
(8.4033836e-11 -6.781262633e-10 6.495923124e-10)
(-3.500548677e-10 -8.21728722e-10 1.771592179e-10)
(-1.160283095e-09 1.837514513e-09 -2.562795908e-10)
(-2.095857601e-10 6.343901913e-10 2.173192764e-10)
(1.764100818e-09 -6.33715171e-11 7.30600749e-10)
(4.588898538e-10 -1.025707837e-09 -2.718974389e-10)
(-2.321167364e-10 1.422355497e-09 -3.352787203e-10)
(4.116634609e-10 9.054826869e-10 2.072256405e-09)
(-7.015689349e-10 1.893791065e-09 -2.843797197e-11)
(2.220558204e-10 -1.898447561e-09 1.356769036e-12)
(1.519523021e-09 -2.908131451e-11 -4.595780871e-10)
(-1.992896205e-09 -1.510657372e-09 -7.85685408e-10)
(2.043651644e-09 5.761833597e-10 1.396986188e-09)
(-1.939280796e-09 2.195687588e-09 -4.223510888e-11)
(1.047074504e-09 -3.899795346e-10 -1.332515739e-09)
(1.630079812e-09 -6.617288948e-10 -3.44629393e-10)
(-2.278904884e-11 -3.636169072e-10 9.860056115e-10)
(-3.78251949e-10 -1.039164385e-09 7.640416977e-10)
(-6.081401904e-10 1.164003121e-09 1.391919203e-10)
(-7.985505792e-10 8.848788786e-10 -4.369266274e-10)
(-1.330434861e-09 1.637109668e-09 1.52148416e-09)
(-9.334994222e-10 -2.757282185e-10 5.898543971e-10)
(-5.578305884e-10 -2.788456558e-11 -1.033173911e-09)
(-5.252381751e-10 -1.63033054e-09 -1.392824673e-10)
(4.211693014e-10 -9.296220305e-10 1.133060941e-09)
(-5.909110997e-10 -7.823481004e-10 7.998446032e-10)
(7.159596407e-10 3.25545225e-10 2.474118342e-10)
(1.099523236e-10 -9.3851687e-10 2.890993833e-10)
(-1.857136342e-10 3.672609211e-10 -2.88445107e-10)
(3.617284207e-10 7.592741063e-10 -9.871465869e-10)
(1.652406507e-09 5.829409218e-10 -2.020400258e-10)
(-8.352906471e-10 1.929798236e-10 -5.697361001e-10)
(8.191275378e-10 -3.290067033e-10 -2.843741118e-10)
(4.636949083e-10 1.880671081e-10 -6.578053642e-10)
(-7.350924181e-10 1.01071086e-10 2.917023304e-10)
(1.481365379e-10 9.213519531e-10 -2.787534531e-11)
(1.093505299e-09 -1.444869374e-09 -2.78425797e-11)