/*--------------------------------*- C++ -*----------------------------------*\
  =========                 |
  \\      /  F ield         | OpenFOAM: The Open Source CFD Toolbox
   \\    /   O peration     | Website:  https://openfoam.org
    \\  /    A nd           | Version:  7
     \\/     M anipulation  |
\*---------------------------------------------------------------------------*/
FoamFile
{
    version     2.0;
    format      ascii;
    class       vectorField;
    location    "60/lagrangian/coalCloud";
    object      f;
}
// * * * * * * * * * * * * * * * * * * * * * * * * * * * * * * * * * * * * * //


2500
(
(-0.0001629052089 -0.001121062045 -0.02056899128)
(0.001389980651 -0.0005504408641 -0.08664072816)
(-0.001902829993 0.0002157762992 -0.03214913125)
(0.0001739624437 -0.001099403131 0.001995646105)
(-0.0006996967035 1.330818423e-05 -0.001437095838)
(-0.0004466239214 0.0006332779581 -0.03157337619)
(4.889909949e-05 -8.125757975e-05 -0.02495446574)
(-2.895419726e-06 0.001984416149 -0.007359804123)
(0.0004029526535 0.0008552492639 -0.008636199111)
(0.0007435715233 -0.0006212194008 -0.0077452436)
(-5.137929254e-05 -0.001515840958 -0.01041565641)
(0.0005245513465 -0.0007752827536 0.001684466583)
(0.0003136491 0.0006505704061 -0.01668185338)
(-0.0003010047333 -4.076288444e-05 -0.01980336185)
(-0.0002666860953 0.0007041967371 -0.007007520239)
(0.0004480036949 -0.0007345394292 -0.03216624498)
(-0.000327463921 -0.003750987418 -0.07196676519)
(-0.0002095429671 0.0009117023459 -0.002808416028)
(-0.001748708842 -0.0004088844939 -0.0103129295)
(-0.0004183079794 0.0008380664441 -0.007868132697)
(-0.0001626093843 -0.0003916544189 -0.0003534689572)
(0.001009220103 -0.0008723527658 -0.07190788711)
(-0.001239721556 0.000177171535 -0.01022707255)
(0.0009526393099 0.002010463102 0.003754235715)
(-0.0009538847112 0.0004463064771 -0.006755712314)
(-0.0009193157378 -0.0002104801951 -0.0201477004)
(0.000373432097 -0.0006556352776 -0.02697418211)
(-4.21614276e-06 -0.0004391921869 -0.05926763148)
(-0.001327016099 -0.000404557327 0.004424555898)
(-0.001456679142 -0.0003994036765 0.004491908636)
(-0.0001318755338 -0.001183212221 0.004536070402)
(-0.001006614043 0.0003800239298 0.003178261204)
(0.0003965738343 0.003330562748 0.006084625747)
(0.0009973938558 0.0009878138678 0.005138584817)
(-0.0005310648541 0.0007974520034 0.003847375788)
(1.711633272e-05 0.000609449417 0.003068072553)
(-0.001247774762 -0.003274158442 0.005910497285)
(-0.0007436828514 0.001700422101 0.005928081185)
(0.0005543266011 0.0005113004964 0.003759111119)
(0.0008261980378 -0.0005993449297 0.006074800189)
(-0.0004962507232 0.0009284115907 0.005175521983)
(0.0004698588957 0.0002734638654 0.002970062114)
(-4.795703406e-05 0.002280752763 0.004222276351)
(-0.0001478673338 -0.0008049910462 0.005275009828)
(-0.001452873259 -0.001168688 0.005178268048)
(0.0004734828889 -0.001086068048 0.005124578878)
(0.0002044947366 0.00153233867 0.005866162568)
(0.0005495484784 -0.001032676777 0.003513521757)
(6.103959527e-05 0.0005137818135 0.005562976056)
(0.0005074445564 -0.0009693185097 0.004236556103)
(-0.0004787479653 -3.395086545e-05 0.002898943699)
(-0.0003970551682 0.0006559856437 0.001841209006)
(0.0008380632714 0.0001668199115 0.001497461537)
(0.000911869755 -0.00165340326 0.006349631182)
(-9.738129794e-05 -0.000230633568 0.004248272464)
(0.0002070613658 -0.0006872964783 0.005337021524)
(0.001415375995 0.0004752633787 0.004903492141)
(-0.0006828299217 0.0003049652269 0.00671778663)
(-0.001147875849 -0.0001584775275 0.005760632195)
(-0.0002834704828 -0.000782948675 0.004552731841)
(0.0001574667678 0.0003909719242 0.004286833099)
(0.001448138131 -0.00156636569 0.006205361589)
(-0.0005813569323 0.0009415817059 0.004830278173)
(-0.0001898871426 0.0008749633825 0.00533849752)
(-0.00162594548 -0.0004721048636 0.005776629365)
(0.001034260247 -0.001532538343 0.005390030524)
(-0.0006924206595 -0.001035571211 0.005995596288)
(-0.0001187012011 0.000423996904 0.005044678065)
(-0.0005732681969 -2.62001192e-05 0.004791922709)
(0.0008062953178 0.0002136080444 0.006141278616)
(-0.001392550979 0.0002336937437 0.003919461592)
(0.001576255106 0.0006074771784 0.005326226837)
(2.686271778e-05 0.001227268735 0.004836518041)
(0.0009672086887 -0.0001612271723 0.005048733623)
(-0.001130532559 -0.002151445818 0.004806571337)
(-0.0008291710647 2.849822687e-05 0.005578737101)
(0.0005003130792 -0.0005187445547 0.00472799181)
(0.0004048637243 0.0006579839419 0.005126898129)
(0.0009151672338 -0.0001206569981 0.004396263799)
(0.001101783494 0.0006166876499 0.006000197666)
(0.002017141471 0.001102499516 0.004335458538)
(-0.0004904487137 0.0002660079678 -0.0242487136)
(-5.148835791e-05 0.0004792741819 -0.02444662716)
(0.000702879128 0.0003699697759 -0.01887024137)
(0.0005448388951 -1.719453611e-05 -0.01989965612)
(-0.0001169413181 -7.865143434e-05 -0.01456440799)
(-0.0004735261027 -0.0006366420368 -0.03573819244)
(0.0005097433495 0.0005776221391 -0.01261176083)
(0.0006502564453 -0.0004110436507 -0.02588264272)
(8.399306081e-05 0.0001391836731 -0.007276826145)
(0.0002162481402 0.0002194879347 -0.06113206928)
(0.0003355850315 -0.0003904696986 -0.02342986488)
(-0.0002829294593 0.0001185255225 -0.03051509475)
(-0.0005572800525 0.003073475125 -0.02931849904)
(4.800132621e-05 -0.0007423183302 -0.01009327501)
(-0.0004099416666 0.0003293786678 -0.006750939052)
(-0.0005534798945 -0.0001412361028 -0.05000971705)
(0.0002861833363 -0.0004519430154 -0.03096267904)
(0.0009352570737 0.00124204198 -0.03432957606)
(0.0002518321213 0.00072026731 0.009371846948)
(0.001376354543 -0.0003183459742 -0.05054428114)
(-0.0001021079395 0.0008747040814 -0.03231541701)
(-0.0004403811031 0.0003673220769 0.0001638951669)
(-0.002431686644 0.0004032895002 -0.05154647491)
(-0.000179541631 0.001038876869 -0.02696817142)
(0.0006796089249 -0.0008757525607 -0.04281831602)
(0.00232800848 0.0005434460311 -0.03094831282)
(-0.0008030847236 0.0007153662505 -0.005600522553)
(-2.392718235e-06 -0.0004373460121 -0.02761459817)
(0.001370523944 -0.0009762745448 -0.02350743423)
(0.0001226159221 -0.0002264338768 -0.005292706305)
(0.0005083420022 0.0001439642735 -0.008569805574)
(9.379121073e-05 0.0004645903139 -0.03000592764)
(0 0 0)
(4.443291514e-05 0.001411462548 -0.02824982774)
(-0.0003737869605 -0.001037006254 -0.02314091159)
(0.0005658840551 -0.0005907026776 -0.024860144)
(-0.0001903234503 -0.0004412920267 -0.03376027793)
(0.0006792379577 -0.0005885502188 0.003300725286)
(0.000523039577 -0.0003127934005 0.005743495609)
(0.001077066889 -0.0003860655837 0.005773778886)
(-0.000228217972 5.151501366e-05 0.005045457593)
(-0.000586132144 -0.001267574194 0.004632990146)
(0.0005902041331 -0.001227471982 0.004829566894)
(-0.0007332762887 0.0005676694716 0.005836183892)
(-0.0004322334541 0.001463702601 0.00531565954)
(-0.0006493008258 0.000311876792 0.004521536809)
(0.0003442907114 0.0007915409776 0.003659544662)
(-0.0002416327269 0.0002603963616 0.004593163239)
(1.301193407e-05 0.0002132886321 0.004529596177)
(-0.000456994796 0.0002544776264 0.004571882094)
(-0.001658120906 -0.0005874173616 0.003955550932)
(0.00151761376 -0.004206649087 0.0006125628445)
(-0.0001950096869 0.001393946944 0.004488656957)
(0.0005891875489 -1.126014271e-05 0.004634658092)
(0.0004780636744 -0.0002407032679 0.004868852018)
(0.0009268454316 -0.0003654711266 0.005273595284)
(-0.001627821172 0.0007185276197 0.005326122558)
(0.0003196772931 0.001032779612 0.004903582048)
(0.0006726677636 -0.001678645843 0.003113237304)
(-0.001136496667 7.768927975e-05 0.005515491066)
(0.002838309246 -0.0004977878684 0.005948457024)
(-0.0002897224357 -0.0009829990869 0.003178047807)
(0.0001048447592 0.000291794497 0.00512852335)
(-0.0001971235485 -0.0006097330389 0.004029492708)
(-0.001286108101 -0.001068283069 0.004576776724)
(-0.0003277879763 -0.001073318801 0.005083176053)
(-0.0005838381796 -0.0008218404536 0.004868729888)
(0.0003061028551 -0.0001721970191 0.004343001903)
(-0.0006465392535 0.0002023287799 0.004036667574)
(-0.0007474492649 -0.0002523708736 0.005763089783)
(-0.0003305427404 0.0002361867645 0.005674476044)
(-0.0007507796265 0.0003098117197 0.005136265292)
(0.001839468322 -0.0004934110447 0.004346531328)
(0.001826037374 -0.001448626969 0.004361717175)
(0.0001694894467 0.0005445143963 0.005055804941)
(-0.0001730992346 0.0005668607788 0.004546223465)
(-6.236604798e-05 -0.0007925075058 0.005763786697)
(-0.001060241402 -0.0002678682054 0.005974008489)
(-0.0007880335422 0.000143466917 0.004760852644)
(-0.0004269467168 0.0001282890381 0.004292504024)
(0.001307510982 0.0004508005224 0.006172695814)
(-0.000152486966 -0.0007507327121 0.005536244019)
(0.0002467024099 -0.0002085463366 0.005720192197)
(-0.0005721241559 -0.0003259738293 0.005603982137)
(-1.93565061e-05 0.001087355302 0.00422586957)
(-0.001018052796 -0.0008469956565 0.004345300762)
(0.0001679468181 -0.0002634657645 0.004897098931)
(0.0002654353587 -0.0001255802745 0.00473349575)
(-3.470389375e-05 0.0002249772675 0.005682588822)
(0.0002622373907 -4.535843188e-05 0.004363286367)
(1.109503822e-05 2.779123338e-05 0.005748022191)
(-0.0004848783764 0.001300416445 0.004835032299)
(0.0004888973249 0.0003149742723 0.005401570705)
(-0.0008786816676 0.0003388746117 0.005581189187)
(0.0005931837514 -0.0005569928619 0.005542092379)
(0.001119431615 0.0003764995438 0.004452029976)
(5.642823364e-05 -0.0001526927072 0.004826407809)
(2.376152889e-05 0.0007126844824 0.00387278982)
(-0.0001210398503 -0.0007327751131 0.00477407371)
(0.0002661602826 -0.0008652517865 0.004994235778)
(-0.0002521655746 -3.73092815e-05 0.005291651616)
(-0.0006231487479 0.0003390230534 0.005007465815)
(-0.0006287139467 0.0006322571681 0.004968811434)
(-0.0003090989742 -0.0008572775439 0.004765511453)
(-0.0006569309339 0.0003729882658 0.004440980848)
(-0.0008855987735 0.0004328842249 0.00524689206)
(0.0005968967593 -0.0007591946885 0.004470059168)
(0.0008759939166 0.0005635272941 0.004959998689)
(-0.0004954977771 0.000841574401 0.005964832935)
(0.0003422256005 0.0001834911147 -0.00244709973)
(-0.001058875881 0.0003330405911 -0.008054218567)
(0.001521325619 0.0008870732623 -0.04648679491)
(-0.0002174034917 -0.000666740745 -0.01173725056)
(-0.0008419992563 -0.001286350002 -0.01554147663)
(-0.0002771137157 0.003033873328 -0.0830206126)
(0.0001483239421 0.0004108399451 -0.05737846516)
(0.001424076254 0.0007888777996 0.006661049609)
(-0.002357457941 -0.000884107191 0.00423392901)
(-0.0007392871103 0.0003895167546 -0.02914066397)
(-0.0007371832646 -0.0002360840724 -0.009953984306)
(-0.0002693120365 -0.0005501322835 0.008011742576)
(0.000308439422 -0.0005756298801 0.002882623424)
(-0.001306131381 -0.002787889488 -0.06321873581)
(-0.0006719699449 -9.918315077e-05 -0.01251855728)
(-0.001080608527 -0.001872799339 -0.04270321006)
(0.0008320869524 0.0009388795275 -0.06428755472)
(-0.0002614660473 0.001704918525 0.009071763312)
(0.001164836162 0.0013776629 -0.03619407909)
(0.0004168031469 -0.0002114615778 -0.03703254454)
(0.001216614413 -0.002091321175 -0.02760378234)
(-0.001126267677 -6.885670861e-05 -0.007668275662)
(-0.0003787077937 -0.0004446117222 -0.06362329464)
(0 0 0)
(0.002579543797 -0.0002974003552 -0.05363373703)
(-0.001913984538 0.0001659105979 -0.05802730479)
(0.0008206353615 0.002521988069 -0.02730642136)
(-0.00117145668 -0.0001729267563 0.006150139891)
(-0.0005322949616 0.0003740021812 -0.01224152256)
(-9.021633379e-05 5.806985079e-05 0.006356340302)
(0.0009486582913 -0.001394073234 0.009228309828)
(-0.0007086388352 -0.0002092723613 -0.06241024271)
(0.0003124640194 0.001131629415 -0.03364552424)
(-0.00129491986 0.0008708845641 0.003891530718)
(0.0009111114168 -0.0001431432893 -0.004167099492)
(-0.0006490139318 0.0009690052427 -0.03726662169)
(-0.0003446469965 0.0003036853719 -0.01147120807)
(-0.0007946496421 -0.0009055975837 -0.05840344633)
(-0.0005114049946 0.0001296480816 -0.05214694085)
(-0.001067657436 0.0003966404545 0.003155156717)
(1.96530416e-05 0.001380449523 0.002963416642)
(-0.001732232565 -0.002649776911 0.003393708731)
(0.0006449497295 -4.044942105e-05 0.004484791713)
(0.00177874508 -0.0001881182804 0.002441994677)
(-3.549180421e-05 -0.0002016633681 0.005686695036)
(0.0007576583877 0.0004685917151 0.001292011134)
(-0.002212678448 0.0004241128183 0.005525297003)
(-7.40751481e-05 -0.0007190646131 0.007527517074)
(0.0002817126678 0.000666646519 0.002980675095)
(7.301730791e-05 0.0006859445626 0.003837636225)
(0.002169507392 6.784027281e-05 0.003929174317)
(0.00173382079 -0.001006112285 0.002999053102)
(0.0007000252844 0.002595572616 0.006791266458)
(0.001242404972 0.001472242937 0.004956279355)
(-0.001046771487 0.001292114104 0.004505272025)
(-0.0002858060525 -8.246461383e-05 0.004534796567)
(-0.0007848014303 -0.001326646855 0.003182107613)
(-0.001069541204 -9.569522066e-05 0.003475891131)
(-0.00313916539 0.000897837319 0.005279928645)
(0.00160771849 0.0008895157809 0.004586043765)
(-0.001697721491 -0.0007445692099 0.004948888771)
(0.0005862650573 -0.0009881374072 0.005555921457)
(0.0007442080295 -0.0008618791777 0.005738738992)
(0.001398433374 7.825334874e-05 0.004478216353)
(0.0005904534 0.0007903765094 0.003088419138)
(0.001392592247 0.0009448315238 0.003191398804)
(-0.0004269152818 0.0004243993144 0.003140534193)
(0.0001121442203 -0.0005746297822 0.004011990249)
(-0.001421622997 -7.497418681e-05 0.006260600544)
(-0.0007272777479 0.001453888849 0.00633001428)
(0.001686113193 -0.0002397683376 0.003351783351)
(0.000752763737 -0.0002050465676 0.005842138774)
(-0.0007957482591 -0.0002823572325 0.005357558502)
(0.001168947908 -0.0009018009415 0.004454619817)
(0.001403375514 0.001900032597 0.005636192103)
(9.401537436e-06 -0.002185712007 0.005052068703)
(0.0007085788686 -0.001005312777 0.005888522524)
(8.29562143e-05 0.0008931355796 0.004184618995)
(-0.0003685480564 -0.0003539329164 0.005674159912)
(0.0009333947569 -0.0004687411121 0.004554573197)
(0.0003655001041 -0.0002846577854 0.004982853869)
(-0.0005790806937 -0.0001476955705 0.005650180857)
(-0.0001456787456 -0.0006897494985 0.005769536196)
(-0.000807430425 -0.0009770532117 0.004717923608)
(0.0002599576226 -0.001189589932 0.00476568659)
(-0.0003234974377 0.0001811920984 0.004822584445)
(0.000737218828 -0.001248078937 0.005262754195)
(3.355536747e-05 -0.0006203326028 0.005333307326)
(0.000385038339 0.0005312738577 0.005633930628)
(-0.000354465658 2.384444556e-05 0.005728480486)
(0.001297649743 0.0002780117726 0.005444118142)
(0.0004334465771 0.001078319846 0.004836679068)
(-0.001328460221 -0.001199011726 0.005182524101)
(0.0002531788575 -0.0001439673747 0.004633135788)
(0.0001386012461 0.0007868238597 0.005647426735)
(1.690769146e-06 0.0003071021392 0.005714112619)
(0.0002898421565 0.0002487954198 0.005006878269)
(-0.0007026060155 -0.0002656854919 0.004751263617)
(-0.00051989147 -0.0004037586456 0.005545892899)
(0.0007103151356 -0.0002943401332 0.005370967329)
(0.001067187925 -0.001279316817 0.005472358424)
(0.0003711909323 0.0002106954575 0.004911518371)
(5.664317488e-05 -0.0004781744513 -0.03125001656)
(1.727486612e-05 0.0004305585491 -0.03261810215)
(-0.0005764690097 -0.001295221558 -0.01462420563)
(0.0004472005582 0.0001693402599 -0.01449636689)
(0.001029038729 0.0006792683894 -0.01861494358)
(0.0006502697836 0.001916760006 -0.05933895193)
(0.000672604149 0.0009860952009 -0.008312922633)
(0.0004012453178 -0.000415832037 -0.0008716748625)
(-0.0003830959163 -1.202742761e-05 -0.04981713679)
(-0.0006826832783 -0.0005997785754 -0.03439660168)
(-0.001796290246 0.0008111476674 -0.07805091477)
(-0.003257610098 0.001027012697 -0.07019631653)
(0.0001532767265 -0.0011528661 -0.02783926944)
(0.001286739384 -0.00215831999 -0.00580324166)
(-0.001070676847 -0.0006929634369 -0.003264585817)
(-0.001292548513 -0.0001480509172 -0.01643556456)
(-6.389113275e-05 -0.000810652603 -0.0231155818)
(-0.0005325949828 7.119444178e-06 -0.05441529385)
(0.001710692556 -0.001167048119 -0.05232286645)
(-0.0001235350951 -0.0001925357522 -0.02465861655)
(-0.0005737705959 -0.0001561410234 -0.03171069619)
(-9.241555616e-05 3.722316087e-05 -0.02873210838)
(0 0 0)
(0 0 0)
(-0.0002157012004 0.001325494858 -0.03060923338)
(0.0003939427446 -1.735809142e-05 -0.008280877606)
(0.0008967177402 0.0002398676001 -0.02056244267)
(-0.0008301011978 0.000172898919 -0.06052744554)
(0.0001094180248 -0.0001411692075 0.004616864068)
(0.001999335673 0.0008251842716 0.005884368723)
(-0.0007152624936 0.0004972970505 0.00432954374)
(-0.0009195071239 -0.0005696529835 0.005271082915)
(-0.001026334943 4.907397553e-05 0.004473685004)
(0.001039960897 -0.001390854658 0.002894275184)
(-0.001032473005 0.001073465682 0.004591027736)
(-0.0001348954297 0.0007289513279 0.004380027747)
(0.001222795023 -0.0002509242548 0.005191415984)
(0.0003405680378 0.0001070454215 0.005160304466)
(0.0001523366174 -0.002438723957 0.003276619094)
(0.0002900047782 0.0002267030352 0.002202300276)
(0.0006846244756 0.002171144066 0.00549265882)
(-0.0008482265346 -0.0009159620487 0.004385283207)
(-0.001286774964 -2.810140091e-05 0.0009191081665)
(-0.001242399153 -0.0008698996195 0.002898248486)
(0.001202792775 0.0006979157278 0.003937169009)
(0.001179518535 0.0002182426649 0.003443532646)
(0.0005093493372 -0.0009514014783 0.00366704955)
(-0.001465799517 0.0001662636166 0.005443328204)
(-0.0009073934106 0.0007324799146 0.001776909093)
(0.0004883984311 0.000978879689 0.001798363234)
(0.0001114249418 0.0003282006351 0.003269828799)
(-0.001191312715 -0.0004984730271 0.00420192042)
(0.0004799428349 4.417570801e-05 0.004578033851)
(0.001035959134 0.0001571768716 0.004236787196)
(0.0006043625109 0.001137240087 0.00513204401)
(-0.0003351819124 0.0005226019324 0.005950573884)
(0.0004291316914 0.0004081566287 0.004459511961)
(0.001534100706 0.0008051896661 0.004397749718)
(0.0006168564467 -0.0007846599417 0.005016389098)
(-0.0003870196357 -0.0003031803865 0.004584359082)
(0.0002799658312 0.0003872721906 0.004857517942)
(-0.0003561820215 -0.000417610448 0.004392161429)
(-0.0006396857778 0.0006199345726 0.004515202426)
(-0.0003136736543 0.0002140331312 0.005179940931)
(0.0001605465213 -0.0003074849608 0.004490902651)
(0.0009818000442 0.0009604876633 0.00501467618)
(2.579299173e-06 0.000539593192 0.007086233448)
(-0.0009933497643 -0.0001050630541 0.004851868774)
(0.000308100553 0.0002923662415 0.004572948975)
(0.001346238169 0.0006851103339 0.006453111539)
(-0.0002316752512 0.0005240023584 0.0057942922)
(5.708571545e-05 -0.0002556633518 0.006361997252)
(-0.0002998216898 0.0002761354665 0.005909973181)
(6.879951339e-05 0.0004687981699 0.005334760016)
(0.00125328645 0.0006285511936 0.00442377856)
(0.0002940271836 0.0001316352559 0.006873905067)
(3.357325312e-05 -0.0009523615188 0.006017179537)
(0.0002496958213 -0.0004164069742 0.006782754341)
(-0.0001521814321 0.0005625672836 0.005512474637)
(0.0004074873439 3.34743786e-05 0.004849454316)
(0.0001483580616 0.0006624736966 0.006299802525)
(-0.0002467505445 -3.016452905e-05 0.006221609016)
(-0.0006020542019 -0.0004664825359 0.004933355392)
(0.0001227268222 -0.0003241617514 0.006056971445)
(0.0001945934605 0.0001072055092 -0.01554360732)
(-7.36533155e-05 0.0004731472389 -0.01085467741)
(0.001218666293 -0.001342746013 -0.051944365)
(0.000574005599 -0.001385887928 -0.02760268982)
(5.137142613e-05 2.168134136e-05 0.000351505641)
(0.001181130774 6.230384562e-05 -0.01415280255)
(0.001473792511 0.0004888446395 -0.01118824999)
(0.0004133242978 -0.0004858314119 -0.04261569965)
(-0.0004836880198 -0.000643687973 -0.03453329896)
(0 0 0)
(-0.0004883725759 -0.0003086257771 -0.06471544525)
(-0.0006427486423 -0.0006855550172 0.00219447745)
(-0.0002111538197 0.0008031781709 -0.02763661468)
(-0.001009470202 0.0002385144728 -0.01790070801)
(-0.0001088440097 0.001285953046 0.0009639233679)
(0.001009927211 0.001473241806 -0.05098186307)
(0.0002246510419 0.0004698359125 -0.03236320166)
(-0.0006983498131 0.001311617772 -0.05389125555)
(0.0001726844781 -0.0001143337536 -0.04225902123)
(0.0002329152664 0.0003348960012 -0.008936576344)
(0.0008704569301 -0.0004044112722 -0.02621978307)
(6.17945124e-05 -0.0005386793475 -0.02302630044)
(-9.230031332e-05 -0.0001646830609 0.00273251734)
(-0.0004972777398 -4.079484493e-05 -0.01491556902)
(-0.0002498251467 -0.001003765319 -0.01319751427)
(0.0003152902874 -0.0007895336504 -0.04835498681)
(0.0001489186514 -0.0007633496907 -0.03760828576)
(0.0003582476153 -0.000107826127 0.003878802702)
(-0.001087494359 -0.0005098640896 -0.06419351034)
(0.001333731966 0.000878631742 -0.05917129215)
(-0.000803930085 -0.0004135796071 -0.02351377108)
(-0.001881571139 0.002790019646 -0.005201672858)
(-0.0002583520094 -0.000655463108 -0.02524058469)
(-0.0001222055647 0.0001658222324 -0.005434999222)
(-0.0001155531627 -1.639278587e-05 -0.0005309165301)
(-0.0004872675574 -0.000975275984 -0.02732028116)
(-0.001893804173 -0.0003847901665 0.004709395449)
(-0.0005747112166 0.0002879327756 0.003554659377)
(-0.0001942340662 -1.333012143e-05 0.003484858072)
(-0.001351807416 -0.0004766389983 0.00496573008)
(0.0009933857758 0.0001547133912 0.004873618943)
(-0.0008072847675 0.0002229588547 0.003420001641)
(-0.001133937888 -0.001103846905 0.005904654851)
(-0.0002356828861 -0.0001799287686 0.00474984516)
(-0.0006574954296 -4.017575092e-06 0.00711463572)
(-0.0007561366795 0.0009401793881 0.002972693019)
(-0.0004220393745 -0.001117354588 0.002175742985)
(-0.001288842681 0.001529457653 0.003411712049)
(-0.0003022379996 -0.0006591033934 0.004452968886)
(-5.42910365e-05 -0.0004586981394 0.005636108809)
(-0.0006172464236 0.0006802331417 0.003548547686)
(0.001270119938 -0.001185231613 0.005118975169)
(0.0004393993285 0.0004628730328 0.004215995934)
(-4.086195498e-05 -0.0005456152331 0.003284363873)
(0.0001241133694 -0.0006087625547 0.002838605484)
(-0.0009381934139 -3.486801324e-05 0.005705202295)
(0.0002950992144 -0.0003224569574 0.003891804183)
(0.0007903463473 0.0003802055869 0.005825438487)
(-0.0001731811193 0.0001567327857 0.005697598073)
(-0.0005961167984 0.0003102591983 0.004242076065)
(0.0002393438253 0.0008034322606 0.00454297822)
(0.0006678783116 -0.0006881487743 0.004438267902)
(0.0003231931284 0.0004675630888 0.003788010671)
(0.0006031623783 -0.001386810786 0.006574474434)
(-0.0006656486725 -0.0003545812827 0.006271533681)
(0.001576493763 6.69041923e-05 0.007051052691)
(0.0003224174563 0.00259901649 0.005245389303)
(-0.0005779129508 -0.0005320746897 0.004709942286)
(0.0008194079132 -0.0002341732648 0.005807485675)
(0.0009937718853 -0.0002375096875 0.00441209888)
(0.000777837643 0.000505144315 0.004718700467)
(0.0001456338144 0.0001669144156 0.004733770948)
(0.001193129821 0.0003850444464 0.003357134378)
(-0.0003666314005 0.0001001881991 0.00463260166)
(0.0003714944052 0.000810086281 0.003880134164)
(-0.0004654092353 0.0002031038173 0.005957707675)
(0.001071268783 0.0004071230005 0.005040515287)
(9.15550397e-05 0.0004088865334 0.005101073861)
(-0.0003920037686 0.0005275161331 0.006495331113)
(0.0006952986962 -0.0003118534476 0.005380111315)
(-0.0006391462895 0.0001205981254 0.004721770079)
(-0.0004053405984 -0.0001312803561 0.004867324107)
(-0.0002684917358 -0.0007073181901 0.003966506584)
(0.0004188906262 -0.0004303794728 0.005453851061)
(0.000154249876 -0.0003174297641 0.005296929751)
(-0.0004681531148 0.0001945744952 0.005219216405)
(0.0007634149335 -0.0003977814996 0.005735022294)
(0.0008941991692 -0.00097133223 0.004198433982)
(-0.0006358090014 -0.000155728021 0.003726593965)
(0.0005504086299 -0.0001235323455 0.004279702296)
(-0.0003474976075 0.000553238434 0.004570789695)
(-0.0001286726425 -0.000502506004 0.005317364497)
(-0.0002114763315 0.0002471701641 0.0060092876)
(-0.0002491640579 0.0004293508265 0.005446418951)
(0.000650844591 -9.44116593e-05 0.00445784133)
(0.0007393252321 0.0001089624637 0.005842318627)
(0.0003803820694 0.0005276699804 0.00482355884)
(-0.000841742239 -0.0009651623187 0.006198183173)
(2.546397649e-05 -0.001074997367 0.004446782682)
(-0.0008410668557 -0.0008585324873 0.005590621797)
(0.0005707106212 0.0009448217682 0.004979805956)
(-0.000602115517 0.0008060900243 0.005769005512)
(-0.0004742773998 -0.0009711318324 0.004647145627)
(-7.342329098e-05 0.0003259084667 0.003980864504)
(0.0008166072517 0.0002310266031 0.005153314665)
(0.0004458127386 0.0003915053657 -0.04878670237)
(-0.0003748543283 -0.0004316361048 -0.0007124882834)
(-0.0006068528166 0.001328154327 -0.03794540349)
(-0.0007051187678 -0.000374599371 0.008119562702)
(-0.0004529192222 -0.0002005510489 -0.009572161932)
(0.001561256722 0.001254313229 -0.0132790783)
(0.0005617933423 0.001231072478 -0.05576498978)
(0.0002647342077 -0.001359655117 -0.02486040109)
(0.0006684251156 0.0007395956315 0.001493996313)
(0.0007320953754 -2.890115741e-05 -0.04962594772)
(-0.0003988206302 -0.0007165073848 -0.0364677358)
(-0.0005391701549 -0.0003605839205 -0.02666107501)
(0.0007034954483 -0.000180386006 -0.06929161741)
(-0.0001567401738 -1.732613145e-05 -0.01680216181)
(0.0008298319345 0.000546003606 -0.01536761813)
(0.0002830712683 0.0003480873329 -0.03659771287)
(0.001014937553 9.566242607e-05 -0.03978088537)
(-0.00211423294 6.755228893e-05 -0.02279084739)
(-0.0003035494196 -0.0002517868309 -0.0002928944632)
(-0.0008766689092 -5.068438571e-05 -0.02683680032)
(-0.0006942353114 6.235707941e-05 -0.002073746358)
(0.0001051021663 -0.0002017200705 -0.005601311457)
(7.278686444e-05 -0.0002950391808 -0.04962823348)
(-0.0003281716699 0.001377432705 -0.03437239885)
(0.001654775248 0.0004476282481 -0.0144516604)
(-0.0006078340734 -0.0001268749975 -0.0001694266517)
(-0.0006922596851 0.001235613016 -0.04647062684)
(-8.494046511e-05 -0.0005787086886 0.002179939732)
(0 0 0)
(0.0003918126187 0.000256459434 -0.05647473637)
(0.0006280110075 -4.469679902e-05 -0.03488074128)
(0.000111215299 -0.0006124599806 -0.01261131648)
(-0.0003617592422 1.253909188e-05 -0.0930304636)
(-0.0003802175207 0.0005230325978 0.005470030093)
(0.0003457215458 0.0001882482044 -0.008434160887)
(0.0007978160677 0.0005576275958 0.00576500567)
(0.0003338926433 0.001649147319 0.002774934506)
(-0.0006274397739 7.010954618e-05 0.004904149855)
(0.002268297717 0.0008768998575 0.005946524198)
(-0.000750536982 0.000585850266 0.004523404907)
(0.002066837445 -0.001929674131 0.003961646022)
(-0.00109787906 0.0004942146892 0.005059261494)
(0.0006516047663 0.0007777364969 0.004345473495)
(-0.0001971177102 0.0008901059233 0.004343592119)
(-0.0005744512979 0.0003240117936 0.003765805081)
(-0.001267426602 9.222008944e-05 0.004860346981)
(1.194966496e-05 0.0006022399063 0.004787169207)
(0.001187552446 -0.0002535033018 0.005642223898)
(0.0004735032624 -0.0014045162 0.00358615901)
(-0.0008127160357 7.862883467e-05 0.00595842271)
(-0.0005736615081 -0.0007351103579 0.004793335668)
(-0.001051463526 -0.0002970215673 0.00454834542)
(-0.0005071382287 -0.001477782048 0.004729178282)
(-0.0008430762228 -0.0004631171588 0.005588354326)
(0.0003661845119 -8.869620504e-05 0.005101699741)
(-0.001441112884 0.001464717722 0.005576488557)
(0.0005650004927 0.001143731319 0.005250764919)
(-0.000242873912 0.0006783633017 0.004882682598)
(0.0007229127464 -0.0004327872102 0.004835727605)
(8.827280112e-05 -0.0001604466245 0.00554593033)
(0.001246039691 0.0004985092397 0.006186277454)
(-9.372068592e-05 -0.0001697172521 0.00446012314)
(-0.0005260276387 -5.938544872e-05 0.005027536501)
(-0.0002551359045 -0.0002948435108 0.005618287461)
(0.001881404081 0.0006895452906 0.005046968461)
(5.467795798e-05 -0.0004332918127 0.004501805071)
(-0.001013267015 -0.001003474779 0.005059054361)
(0.000612882996 -0.0009618806769 0.003692721399)
(0.00012741984 0.0008982454059 0.003530333316)
(0.002157250313 0.0009982849258 0.005022216316)
(-0.0004093324694 -0.001592322755 0.004758471087)
(-0.001312749878 0.002154466919 0.00428035726)
(-0.000828887814 0.0002667789561 0.003121166544)
(0.000767959214 -0.001086098236 0.005127516575)
(-0.0005746774951 0.0001491629135 0.005948229532)
(0.0003628208443 -0.0006440137709 0.004321032815)
(-0.0002335313297 -0.0003224362509 0.006182252601)
(0.0008970552884 0.0002398165162 0.005602694287)
(0.0008023203508 -0.000220114993 0.00653768385)
(1.722383531e-05 -0.0003637472495 0.003901488219)
(8.318967836e-05 0.0002497681547 0.006136153573)
(0.0002403189213 -0.00073473858 0.00522811686)
(-0.0004427341732 0.0003912709127 0.006157985121)
(-0.000146650302 0.0008148315237 0.005500038881)
(0.0001596247572 -0.001985952644 0.006116100492)
(0.0007642739673 0.0003480013029 0.005671518665)
(0.0004162970966 -5.643786807e-05 0.005667633348)
(0.0001778407729 -0.0004620720934 0.005899130776)
(-2.992905844e-05 0.0002626862346 0.005188756513)
(0.0001914739068 -6.43813514e-05 0.00452355788)
(-0.0001551597144 0.0003107991869 0.006033833567)
(-0.001465392033 -0.0005920025589 0.004639296084)
(0.001321116329 0.000700382642 0.003537851779)
(-2.919393544e-05 -0.000586310441 0.005178792733)
(7.770459062e-05 -0.0009173402288 0.00327207911)
(-0.0004634764592 -0.0004791868018 0.004796551656)
(-1.389670254e-05 0.0003087985536 0.005325900522)
(0.0003637293183 -0.0003363878878 0.005195019494)
(-0.0008017231975 -0.001462110383 0.004914700981)
(0.0004238744873 -0.0003552806013 0.005707706846)
(-0.001436950781 -4.408134386e-05 0.003998380636)
(-0.0003199814498 -0.0005145095495 0.004755711981)
(-0.0009179574029 -0.0003306871197 0.004945875139)
(0.0005888878219 0.0005003547291 0.005648481763)
(-0.0002031228524 0.0008819701784 0.003887038406)
(-0.0008821581575 -0.0006195534789 0.004974450332)
(0.0007231773196 0.000857316763 0.004199425657)
(-0.000734713533 -0.0003162799514 -0.02956507275)
(1.620211119e-05 0.0004433820512 0.001942065836)
(-0.0004351979721 -6.66613395e-05 -0.02147643396)
(-1.809190202e-05 -3.081922857e-05 -0.0009547728099)
(0.001446930394 -5.392186511e-05 -0.03893893646)
(0.0009875277736 -0.001361234581 0.002653912107)
(-0.0002502531725 -0.00079370581 0.003673722301)
(-0.000560733031 -6.105530445e-06 -0.06805237258)
(0.0004233536426 0.001091662918 -0.01572972855)
(-0.001262852827 0.0008723983726 -0.07720364212)
(0.0006071559953 -6.432049173e-05 -0.01721259408)
(-0.0001148336303 -6.282294211e-05 -0.05099103736)