/*--------------------------------*- C++ -*----------------------------------*\
  =========                 |
  \\      /  F ield         | OpenFOAM: The Open Source CFD Toolbox
   \\    /   O peration     | Website:  https://openfoam.org
    \\  /    A nd           | Version:  7
     \\/     M anipulation  |
\*---------------------------------------------------------------------------*/
FoamFile
{
    version     2.0;
    format      ascii;
    class       scalarField;
    location    "60/lagrangian/coalCloud";
    object      neighbourMin;
}
// * * * * * * * * * * * * * * * * * * * * * * * * * * * * * * * * * * * * * //


2500
(
1358.083364
1357.263018
1306.699429
1310.092739
1310.530055
1380.801263
1368.090347
1326.020886
1295.682688
1307.0423
1367.467983
1344.883963
1332.637511
1369.856122
1355.000621
1341.543823
1322.402561
1320.322903
1316.073013
1350.439695
1338.09577
1326.673185
1317.033178
1269.229201
1305.201858
1348.721929
1330.322045
1309.554503
1275.527921
1224.183189
1243.916427
1302.172348
1280.017109
1259.759222
1295.634308
1286.698541
1244.038243
1254.530185
1249.881262
1280.013489
1270.641644
1268.037193
1256.784899
1282.307111
1281.280846
1275.651269
1277.805958
1225.339648
1241.484934
1275.077704
1247.273414
1244.944123
1248.925649
791.8496038
843.8570809
791.1135456
649.9245716
698.1104762
520.385149
464.0950157
647.3469901
557.5057937
469.0383295
641.272677
587.850782
477.4181056
464.428715
607.7118084
572.0613111
503.0211838
619.4969757
439.2894005
616.4939075
593.3638928
567.5435051
497.0755447
590.2234928
515.0876889
567.7843394
534.6705796
508.6053609
1289.828937
1297.16244
1353.100852
1352.382074
1332.235182
1309.674378
1303.512303
1364.99869
1364.835598
1354.740468
1336.918751
1297.695718
1314.126657
1350.747702
1329.027374
1378.244118
1370.371978
1342.367404
1320.89826
1313.80048
1382.091921
1366.671312
1320.421842
1382.842881
1377.333367
1358.230406
1336.480928
1331.142813
1388.676577
1365.021726
1345.372332
1385.829727
1350.968553
1336.974487
1386.186529
1372.551225
1335.194786
1275.851585
1249.469201
1252.820134
1287.093508
1296.898468
1274.864931
1261.12004
1223.966019
1217.180104
1274.483338
1271.135907
1230.762855
1305.083198
1296.735005
1235.808997
1300.964532
1294.591206
1267.702281
1229.296539
1242.45291
1302.124119
1300.360189
1296.854322
1259.657655
1309.638775
1286.55426
1268.325166
1253.967797
1308.389083
1284.43226
1252.269443
1320.065915
1303.681761
1245.349699
1312.073575
1285.125543
1232.991913
717.4988765
758.1647048
529.4236108
539.6418335
516.6663537
573.6342224
530.1355634
521.4746437
463.9170139
595.6663313
629.7723812
608.7391926
597.1181695
605.7506874
575.3482725
549.3072429
504.2442606
483.6230197
604.3241572
632.444412
616.8507787
597.1547269
641.2207089
598.7973274
556.5410132
496.8065389
616.3267189
622.69618
546.4204273
681.5260038
585.5752771
453.6411671
598.0693831
631.3690398
466.8922972
1380.449299
1366.86489
1353.862514
1299.614412
1359.823573
1350.736405
1335.920289
1245.274708
1342.947802
1278.418335
1321.656299
1310.182216
1303.154261
1278.196633
1326.057574
1339.573907
1313.245484
1294.613624
1324.612151
1322.273594
1308.760857
1304.712611
1301.567995
1325.925959
1296.859058
1312.717265
1295.878374
1280.339977
1252.753126
1273.678123
1273.37686
1311.567286
1300.481538
1250.437096
1273.258673
1316.888526
1322.404138
1321.14954
1298.369593
1301.259191
1309.16074
1266.185486
1297.685331
1273.431962
1296.008454
957.3480551
1248.332074
1251.226802
1221.335576
1261.460805
1253.572772
1228.650254
1267.91125
1278.106507
1226.859548
1234.781489
1244.790762
1237.350167
1200.420057
1247.868922
1195.958544
1151.587341
1236.494527
1201.64683
1193.111356
778.5861201
679.7841666
758.6704369
782.8469681
859.7637399
651.7203843
546.1621332
825.9981757
847.3207495
689.4002685
756.4145906
853.1509107
604.2846522
618.8889162
587.476418
530.8721324
525.899388
538.8570945
565.7274628
425.42699
527.8578001
488.962625
467.5708882
486.0626698
539.9648523
551.9908932
441.6043847
575.7311631
421.7064318
517.8189005
468.5664649
342.4837979
525.1555605
474.1286394
452.3162999
559.9312092
441.1791936
1340.18868
1358.106978
1356.16111
1385.97266
1342.832781
1357.10227
1344.772204
1358.437893
1370.256633
1329.082788
1341.443524
1349.873865
1372.939175
1344.434459
1349.686525
1359.816351
1328.309411
1357.332321
1335.117252
1343.992674
1350.410986
1343.710507
1319.77597
1332.804864
1338.516863
1339.773638
1331.545356
1311.61443
1288.436176
1302.561273
1269.9394
1308.434879
1262.329184
1280.779746
1277.028855
1316.457448
1267.678127
1270.283114
1294.110098
1290.826822
1309.599964
1252.400997
1255.540953
1276.709008
1291.341817
1270.227169
1282.137274
1264.55102
1260.781845
1270.886642
1272.598001
1272.733713
1246.694011
1224.327967
1261.405442
1271.489044
805.8773151
801.2621889
779.1535051
515.815978
579.2987075
567.4504801
618.0288993
592.3366809
568.1398204
559.513689
606.6765044
609.4605816
604.3524291
575.0508304
581.9831365
591.7192783
575.5159442
571.3053829
636.1279334
526.8274612
579.7099425
532.8863123
475.127455
542.1968321
573.0006977
585.8389644
561.3155745
420.6634462
1360.401187
1366.553256
1307.522401
1337.478481
1267.630198
1377.872816
1345.933531
1322.727135
1261.607562
1324.313137
1297.909025
1346.86848
1341.522425
1309.538555
1277.879042
1353.26469
1339.002986
1320.191408
1295.992772
1357.300617
1347.032168
1327.124513
1286.919599
1292.955976
1349.806519
1274.408001
1302.075623
1289.071973
1344.851477
1335.521044
1291.931759
1299.944696
1338.972304
1335.74545
1302.330423
1308.907739
1275.606902
1241.518367
1286.913895
1285.824669
1259.458749
1293.884356
1242.937087
1254.162193
1228.270847
1299.038814
1277.889478
1269.898142
1259.27001
1208.752084
1291.289995
1246.788543
1249.45924
1207.491597
1281.13861
1205.865353
1233.582787
1287.629837
1273.528724
1268.837713
1190.591296
1265.568687
1226.437384
1214.676566
1245.447813
1242.771448
1215.43049
737.7235326
790.0261463
945.6189853
926.338961
762.350137
792.5707116
696.7731346
797.0181389
766.6717545
558.4559866
435.3492702
470.7237273
546.9322097
541.9336755
530.6618863
574.258162
563.7196444
523.5663044
459.3038628
531.5383226
514.1450284
546.2607829
568.2142267
542.135103
506.1238916
469.8306413
541.2411733
593.5462678
514.6891893
457.6334723
475.0592191
531.0887383
549.7293558
468.1321137
400.42121
466.7299496
522.3302989
426.8076391
1331.734089
1294.132151
1292.474619
1354.328754
1331.501816
1321.937055
1308.856682
1363.257813
1351.36608
1315.695631
1319.45443
1313.965586
1346.804259
1310.412158
1298.5217
1372.999635
1365.019704
1318.30298
1303.793742
1354.659244
1360.213336
1325.756794
1306.754583
1373.397397
1351.580992
1321.842997
1381.370228
1361.629779
1337.933412
1322.724614
1385.373566
1324.158906
1350.212358
1323.132331
1299.089772
1270.581763
1232.850699
1254.581459
1260.337833
1231.775539
1290.315337
1250.677675
1250.855748
1233.336333
1308.211093
1260.00631
1245.707033
1242.826294
1285.558348
1274.097045
1145.645903
1232.408015
1284.094456
1278.274954
1225.31436
1294.505916
1266.437871
1215.424589
1241.029456
1326.568774
1295.597235
1295.485464
1261.78361
1305.629568
1290.458679
1256.30402
1250.982088
1310.294555
1283.489559
1246.257866
1310.934672
1232.863169
698.4331929
733.7331306
756.1214282
701.1579061
891.7446389
497.45306
524.9015049
514.5083487
547.5648544
500.4593332
607.1166712
538.4035029
458.058406
478.3515098
527.6645257
567.5824419
395.3138477
562.2129126
399.317733
451.9805853
543.4590779
456.6185808
467.4113484
552.4254942
585.2198525
575.5175646
540.9387731
572.6660857
550.5949473
530.5888512
494.3349804
572.2020328
526.5007752
463.0397012
462.9164112
1318.618382
1302.474231
1303.901392
1342.697868
1333.607508
1304.132882
1343.689817
1330.58424
1310.284748
1355.662976
1327.375982
1314.52349
1360.705072
1342.942619
1323.975355
1341.490352
1322.082453
1316.64683
1358.354967
1334.919208
1377.150065
1350.028095
1330.21635
1319.351626
1370.412628
1343.252204
1386.948479
1343.967169
1318.161741
1311.159698
1255.267084
1263.204616
1242.92099
1225.946962
1242.889498
1255.5023
1222.037285
1276.133649
1270.563481
1222.392996
1220.088442
1260.775284
1287.74143
1290.564125
1266.997177
1256.09809
1274.589879
1258.774356
1307.231446
1274.618192
1260.0604
1286.660704
1269.774877
1332.555607
1277.403675
1244.211181
1298.212199
1274.005945
803.3651089
558.8170091
546.4826112
534.1118409
484.5449457
504.9138968
562.9655363
515.31698
531.4816877
467.3825422
562.1813903
568.0151373
600.1973886
643.6807428
542.1660039
571.7017072
612.1425101
638.066863
541.8641932
660.4842407
494.3212182
566.4164979
620.3773265
464.5747653
481.2558746
1310.486886
1299.969328
1279.662385
1279.752377
1322.336671
1244.840762
1264.451425
1315.474215
1305.551134
1272.011717
1270.806789
1264.460168
1337.244496
1329.386238
1302.116443
1301.64744
1333.048253
1325.078694
1315.849563
1309.121176
1331.477872
1331.207388
1315.370176
1353.173901
1315.502476
1277.798962
1375.016474
1332.199905
1303.460135
1381.660385
1377.700907
1338.910924
1291.966731
1390.460133
1366.526364
1325.74134
1265.487416
1250.788136
1248.148636
1220.948109
1228.055221
1247.194424
1237.132349
1197.909103
1251.866752
1218.463069
1254.185306
1260.209629
1239.027328
1273.423838
1254.94679
1250.419649
1251.833081
1238.986788
1317.461208
1290.399081
1276.787143
1240.809171
1301.142749
1294.322699
1267.96979
1236.035102
1256.696786
1276.374871
1313.447939
1300.62622
1305.515254
1256.768224
687.6874679
687.0638833
717.6527912
847.9605701
900.7462446
797.631184
765.7180341
802.1048955
662.3908593
648.8366719
648.8327727
770.1303548
646.4708726
478.5406911
449.3862854
499.1391247
437.1666775
463.1450389
476.3344601
520.2433047
424.0252618
572.4849142
555.4724429
492.5606018
505.7255761
425.7078258
493.8426476
507.1512041
632.5120708
480.1697782
576.4462303
520.0743685
501.5589733
569.9933883
506.4696501
525.2632955
1381.91148
1319.701584
1328.45467
1368.884898
1347.18966
1383.556604
1379.089687
1284.396665
1314.827378
1365.916872
1348.770098
1300.566869
1277.593856
1371.144339
1371.064012
1315.511277
1303.402481
1353.524859
1316.400949
1309.651518
1359.660931
1346.017424
1310.929137
1312.207091
1333.29262
1328.859162
1312.463052
1301.030529
1336.35868
1313.345233
1298.369168
1345.983579
1345.985329
1330.847518
1286.569866
1291.022351
1285.995512
1232.829063
1321.762224
1293.622003
1244.146134
1287.896157
1264.626563
1194.698464
1319.488392
1306.692105
1253.462025
1210.792767
1277.013208
1222.11256
1291.821409
1298.229159
1266.812171
1246.975035
1232.828133
1289.045547
1206.887501
1273.124346
1229.740977
1244.626783
1220.888214
1193.289121
1263.890077
1263.756838
1199.446364
1256.396508
1200.251337
1203.71385
783.4740453
780.278135
774.8655368
689.2461489
592.0019567
551.298519
593.0925691
627.5759799
618.09598
560.2227941
577.7507977
546.3005305
493.2137914
400.4996003
547.5316993
496.4389919
453.3843955
527.1365012
575.2799674
533.5089877
545.5369711
535.1283577
503.4441351
587.0249131
585.3798404
471.9602738
481.0405976
516.6818288
497.1205685
515.627036
576.2804808
574.3733757
501.6146242
489.5866152
483.1036263
1308.488503
1324.477731
1331.324153
1320.112168
1332.608605
1334.041895
1333.78547
1314.48668
1343.217643
1313.061447
1331.692646
1338.621438
1341.499193
1346.001012
1330.070848
1337.970719
1322.333132
1347.743544
1355.358842
1353.787411
1314.49988
1370.59476
1324.536247
1351.516414
1363.516838
1375.763046
1243.980591
1262.527626
1253.335936
1277.574422
1251.994309
1238.90202
1267.722011
1266.879047
1266.184782
1264.97361
1261.707891
1263.233107
1254.579642
1269.910128
1255.366537
1273.863294
1270.903684
1294.593162
1248.268944
1291.893404
1241.967944
1255.696246
1279.434811
1253.946449
1240.767831
1303.412423
1305.152815
1277.287596
1294.66183
792.8316141
739.899806
791.9540217
700.570792
522.8868785
572.8582561
508.8027219
530.8950978
546.6001152
558.6627967
511.6110969
497.2975543
531.313865
579.2593586
550.7775883
559.6278248
551.2357369
540.9193318
602.4801015
550.2518003
520.0148174
565.9904762
543.2293042
575.1182584
485.1934544
543.5477142
589.1932927
549.5827201
575.9702207
479.1688939
580.2496259
1314.872203
1337.333101
1324.104849
1287.58958
1295.401669
1342.650663
1344.53688
1327.250066
1270.409146
1348.126441
1298.153335
1273.852621
1354.768828
1336.037115
1297.764268
1295.534564
1356.100943
1357.986128
1352.638344
1334.487091
1354.010254
1301.155177
1300.863729
1366.465756
1318.894293
1328.570691
1312.609269
1377.666355
1312.028166
1320.697135
1385.572609
1348.29896
1341.064742
1334.617672
1382.269594
1353.356009
1273.505758
1263.644898
1264.843858
1200.009342
1241.487321
1271.312021
1248.056564
1242.327432
1247.567983
1280.218583
1258.305506
1278.80263
1267.192377
1226.862886
1279.194416
1288.333404
1265.582652
1249.378522
1196.416605
1222.280666
1235.699003
1226.99781
1294.527694
1298.250444
1317.215982
1238.405357
1223.038553
1295.429494
1276.048313
1252.939428
1296.835528
1284.53803
1263.701737
675.8526324
894.9241812
690.6671605
679.6847254
827.3308043
785.7372439
554.3118593
532.1803576
532.1625953
419.349356
524.693385
546.3162282
585.54425
542.1396435
451.6438384
576.0802356
551.8480894
591.2566063
517.3115152
429.6787363
561.1563679
498.3970035
559.4807573
453.602365
568.3830404
494.8346017
546.8703464
531.3147682
516.2079589
555.3470716
478.2361844
590.8040725
448.4819674
598.8259737
584.6053568
527.7112481
1387.790805
1368.316113
1350.018886
1338.776353
1374.851826
1360.557723
1331.454729
1383.984806
1340.621372
1374.12235
1365.712979
1330.034533
1330.190582
1323.810049
1363.652308
1346.255597
1320.422181
1359.041725
1352.168219
1319.656925
1330.681026
1313.417031
1329.240608
1333.684373
1323.221538
1319.67136
1324.451802
1332.899727
1293.425645
1315.484529
1283.998588
1304.325771
1307.438583
1310.442012
1307.870235
1303.546278
1309.09588
1308.892204
1299.638291
1304.87742
1280.775177
1261.517676
1311.823025
1276.407589
1264.405699
1271.968856
1252.027528
1282.976737
1277.219217
1255.707382
1247.228605
1301.822829
1264.665127
1270.640959
1291.920639
1271.141283
1254.367393
1230.624216
1268.244571
1263.412669
1225.873176
1253.447601
1273.835202
1230.030845
1223.756898
1262.594328
1237.323255
1258.169452
1216.96191
1224.104661
1233.892839
795.9356974
824.3699559
837.1135282
788.1665471
741.6555589
573.9670297
546.9029452
519.9267112
605.469615
613.6464475
534.9728958
573.12268
617.7139132
558.3458931
544.5670387
575.7300592
558.6944294
474.3950706
608.0747058
524.269658
497.8214963
483.6648269
533.8063362
551.8210884
506.2553976
542.453416
549.7002551
523.2794591
517.6418929
477.2212047
582.5873891
489.7196281
544.3588074
573.3213672
493.0912264
458.9600076
352.9011901
396.5108337
308.4247513
304.3846695
316.0119715
307.4233723
322.2895043
362.8098463
302.4919505
302.3583948
300.3011867
316.1314464
307.9152423
322.7506022
310.9096215
305.0911482
314.1480575
309.7140585
306.2200298
299.8954445
319.8832996
310.0146775
301.1310651
306.6905134
303.598664
312.6649338
298.1879343
298.8129893
296.9769112
298.2308458
299.291588
297.4056635
298.1832248
297.495423
296.8416732
308.3829962
300.4921442
297.0808154
298.1835888
298.1439648
298.7969083
300.4691591
298.7415881
301.1404868
296.8253003
296.9544526
296.9643004
297.2326104
296.657336
296.561527
296.6504742
298.3409076
299.9096713
296.8740433
305.7281807
298.0627251
297.9152828
297.0376958
296.9233535
297.1786085
332.3075188
300.1645003
358.8786275
315.61101
303.8337209
330.4145662
313.8825512
425.4143276
325.5042781
362.2704653
334.6786247
299.8259881
359.3910432
299.8646938
323.4536408
337.9313714
300.6631885
299.5462964
298.0524698
304.6371421
298.0190647
319.772937
313.0192198
297.9870247
300.2888277
314.3522553
319.9743471
325.6200303
299.2771704
324.5569241
312.4813979
300.7083572
299.2939505
337.649825
299.1620641
327.1851017
320.9908527
296.8511583
296.6432463
297.0787343
298.3056431
296.7243622
297.2416839
299.405022
296.8192174
297.3438599
306.7068259
299.7482764
302.2418472
299.6691368
298.6253002
313.0948715
308.4659021
300.8083298
296.8344234
296.8797236
302.980641
296.6091866
296.7112452
296.8808777
296.4104419
297.0683603
305.5584474
297.8088578
296.5576027
297.0871926
297.7136134
296.9000764
299.8127118
297.0153424
297.1287767
296.8318806
296.8033322
304.6327957
296.9902215
299.6107139
313.3997192
367.6764064
352.536049
302.325433
305.3839989
304.313686
353.087114
315.3246803
323.995205
339.7821582
303.4985139
306.3005528
341.5642421
298.4476126
309.7601374
348.633239
374.7590323
347.6052004
327.236943
347.6061274
322.6327472
354.0285673
314.8610983
308.7808343
300.8531677
300.4588331
296.8626113
298.0212168
299.6742011
310.015762
307.0901969
298.002954
306.8066767
304.5902129
308.7153084
299.9166403
299.1033192
307.1731002
297.6784536
296.510412
297.2095726
303.6784144
296.7349216
296.952146
296.6923156
297.0837333
299.2542828
299.7400647
296.7882264
296.6666242
296.5932165
296.9929183
297.446732
296.6871617
296.8976218
305.276711
298.6073441
296.8204257
299.3258507
297.3001036
296.8096428
298.9472317
296.6996959
297.5012175
297.1617077
296.8848535
297.499962
300.2270594
296.8279088
296.6520128
296.6674179
296.8612548
296.6509788
296.8375689
296.7952648
296.7289432
299.4772614
297.1460397
297.4189284
296.8793005
296.9334369
296.8211634
346.2777671
335.2201518
415.2309126
396.540122
325.4142168
337.5953897
422.9783636
316.7930073
317.0366237
435.0257513
388.1246583
300.7656063
308.495191
301.702066
299.0743028
314.08282
319.0099461
320.4049124
300.5222733
300.4157951
308.084671
299.3648619
304.5412098
327.0264602
314.4591773
308.4019115
304.3992226
306.3721177
313.6169628
309.4752335
301.1421993
300.7208996
305.4320547
296.8385044
306.2211933
297.1822667
303.8983835
299.5342977
308.7586397
296.7168425
296.2839108
300.7631909
305.7355282
296.8932924
297.551936
300.6031999
297.5822188
298.37431
307.2529733
304.6335522
297.2633112
297.1190678
301.4337049
296.766918
297.6487797
296.4957912
301.1388276
296.4908901
298.2151492
302.6269188
302.3009682
307.9634953
320.4865182
303.6808109
330.3476944
348.0919598
313.7404603
301.2444532
298.9618709
309.5728527
299.1455396
388.964169
347.1730499
316.6894717
360.98306
304.1345614
298.5417599
314.1795452
301.0678447
310.278322
304.3222946
333.0515794
300.5971488
298.8152966
310.9757702
298.1426634
298.7778253
308.16217
305.1131939
302.8570691
316.0697852
305.5100977
302.8984855
310.5729084
297.3876526
298.1665469
298.2328807
296.9514981
302.6414255
299.8110717
296.9527039
298.6738507
300.6036932
301.1894904
296.7472163
296.9368396
298.6389827
296.9880342
296.7947163
296.8551835
298.0948237
299.5378902
298.4855369
304.3993969
299.0725453
296.8314003
298.7177332
297.2020135
297.2058887
296.9727514
296.9286511
296.7587651
297.3571881
296.6836344
296.7696353
296.6437845
296.883907
296.8915367
297.3689553
298.1505254
296.8620839
299.72891
296.897769
298.9087252
296.9292323
297.4308467
296.8954822
319.1637472
405.4073538
321.9152229
345.7082883
351.3656957
338.6931681
303.7051309
364.7869805
353.1676043
306.2981625
339.9020189
327.5838856
347.0989297
320.9501729
304.0346998
307.8035764
303.1311911
299.0302202
299.2808778
298.2925735
315.7060224
297.189744
298.4598851
309.1952709
298.3367329
308.7479067
297.4474519
299.0336119
298.3752029
321.2224313
300.3358611
306.9683262
299.5003567
299.8200441
303.5327792
299.6797441
297.1107566
298.5484787
299.0694332
297.4049711
297.3613126
300.0986869
298.7792077
298.1970295
299.1231764
296.7039831
296.963812
296.5787575
296.7134704
304.0235356
296.9163187
298.8241703
298.0046154
296.8787213
303.3802972
296.6140664
297.5151857
297.9175849
298.0619853
296.3897602
297.3384824
296.8719798
296.8807249
297.1522415
296.4692297
296.9048397
296.9104599
296.9582605
297.0489139
301.5811058
304.3352433
296.8801367
296.9164718
296.4089451
296.3039175
296.9452442
296.6899548
296.9897498
405.2799217
349.6720146
341.7268708
313.7013991
300.7286948
298.9995073
428.4935007
348.5484356
307.4029796
305.9476555
326.7640126
323.8456471
312.8290787
353.7363969
327.337037
312.3412862
324.0368294
305.1323925
298.5457774
308.9664598
307.0987221
298.5855999
298.7410369
305.1901814
299.3919696
309.4021497
334.534454
316.040291
304.6813299
303.2445689
303.2874917
297.6508451
296.8998544
298.1285673
298.2790678
297.669388
297.6166016
296.7212484
297.0188158
297.0903432
300.0827563
298.8395191
297.3371294
297.6797883
298.0099352
313.8349101
296.7431053
298.5762003
297.4806727
299.380599
296.7028275
297.0215602
297.4852941
297.8678863
296.7847821
296.6161789
298.3190644
296.9724613
296.8824476
302.2033153
298.1190029
296.7851189
296.7296288
296.8778429
304.4433772
299.8982013
303.1700245
391.8511804
319.93702
337.8465777
374.4890041
329.4959112
340.8942533
408.4882364
305.7579459
341.0974255
323.9917776
310.3391179
304.9226572
300.3500122
375.3289442
304.4614376
361.8604639
385.0662885
297.9727256
299.0639513
297.8476776
298.5580688
301.1333568
300.5255068
298.5534723
300.8876091
305.3041039
305.8141558
303.5546457
298.8540286
306.0693309
302.6479511
299.2043528
300.1785116
296.7428757
302.6632103
297.797419
299.2270524
301.6424488
301.4700154
298.6120548
305.4343311
298.4705928
299.9614894
299.4624679
299.0041064
296.4859547
296.638373
296.784923
297.3951311
296.5766799
297.2160458
298.0403344
297.8745059
297.4049349
296.9210528
305.9157614
301.9637978
296.9014935
297.6099632
297.2324437
296.9874634
297.5478122
297.9904831
296.9300862
297.1292155
296.9632785
298.094953
296.981486
297.0229898
296.5652727
297.0521285
296.6614659
296.7292675
296.4171722
307.2230239
356.7270876
335.7822052
374.3234504
337.8963541
398.1988631
302.9785454
346.2893004
301.6530499
445.8791701
309.9604934
326.4169434
324.7706468
302.6617162
318.3742489
361.8495681
352.8387051
387.8494779
353.2112374
324.1271807
299.1487912
300.4996199
297.3270894
299.3428218
297.7090282
309.6493744
319.6577064
329.174646
300.7152316
299.8249682
305.0928084
299.4556245
298.9248051
306.8975032
304.6322851
324.6892174
302.6472003
305.6340142
306.3621345
308.0532244
298.3825645
303.056714
298.3418327
297.9310513
312.5984633
306.1443733
296.6712842
298.6267483
296.8035168
297.4820344
311.8169826
297.5655407
296.7306205
302.128914
297.7845685
299.2871384
298.394794
308.3003434
300.6017774
298.0912426
307.5497788
296.8686072
298.1458184
303.8141756
297.0681881
296.7708405
296.9904087
296.7008818
297.0841682
297.1530378
299.6750168
307.7532541
296.6288881
298.7300721
297.0930952
297.7910113
297.0415398
298.7702052
297.7740313
297.2425223
302.4107902
296.8870213
309.9513624
385.1618848
356.9505364
312.8415952
309.8558464
315.1795111
313.7810486
321.7171572
331.8317004
362.2013812
307.0928598
313.3543701
313.6406716
337.3566948
299.2456282
320.0053502
305.1971987
301.0490661
300.7694237
300.5958962
302.8197395
301.8395268
304.4251969
308.7266597
306.11881
308.5086952
306.0048826
309.3737584
306.0933282
300.039422
303.112342
296.870807
296.7286828
297.2629159
298.2176495
297.810819
298.1886556
297.9910519
297.0967391
299.9200705
296.8695039
301.0790009
299.7900722
299.5403498
299.2603523
298.5116721
297.680145
298.9672832
296.7159089
298.9770085
296.6144334
303.7389704
296.6825038
296.7711015
299.3880769
298.3777162
298.3981434
297.4891716
297.3914784
298.3576873
300.1722889
297.1729465
313.4378037
305.4519303
389.9407554
326.6381289
337.7082478
319.187124
300.7699048
299.2743286
350.1189037
310.0434081
341.5298936
310.5153309
332.393059
318.9937199
333.5684207
389.7478711
329.1851603
308.416854
369.0917784
300.976569
324.208298
385.2494146
299.2750182
298.9352925
300.4087019
298.3054837
319.0884423
311.1097922
310.4459303
297.4654452
298.3405035
306.0968952
302.4045353
301.1809027
317.3919782
297.9568885
299.5433582
299.3932019
298.8210937
299.8297723
296.7268308
296.7728061
296.9910549
310.190998
310.4288221
304.3631737
299.2740402
299.0523566
296.3829655
296.9722157
297.4999076
296.5059448
296.8163828
297.7651424
301.441895
297.5670463
296.5088872
296.6936753
299.6133938
305.8287301
302.7955098
297.1966965
300.6840246
304.0940112
297.2481535
298.5744265
296.4204713
296.9017409
296.4304096
296.8156561
297.4093282
297.1892591
296.860929
300.0802867
301.5919728
297.0832391
297.0287221
296.3718342
296.7449899
297.0857326
296.4108733
297.0729591
353.1601009
305.2141815
332.0373037
303.1078169
299.0281348
304.8916041
402.9081192
365.1588354
328.4177572
368.4174887
354.2578916
329.3163563
319.6399351
319.3557574
308.5853458
388.1820042
299.3105066
307.4135321
298.8544772
307.2246054
328.6056252
316.9468435
299.968765
301.1788192
314.2501742
302.571294
299.1104378
298.898179
299.5619491
301.4965805
302.1901677
300.9242584
298.5245784
303.5289151
297.2647662
297.5769952
296.7694785
296.94977
310.0240667
300.7874646
296.9231883
301.8838226
301.7264654
302.5239923
298.884891
296.8751413
296.757052
297.1226067
304.9681993
296.8467981
304.7358842
301.0415932
296.9825184
296.9205439
305.3360487
299.2901247
299.6294477
301.6644357
300.9040237
297.8655076
296.9579123
296.8350001
296.5697801
296.9532973
305.8326735
296.8464272
296.5764215
296.714794
296.7442614
297.2983732
300.3701014
298.7571361
299.2355411
296.7302254
296.8316808
296.7387466
296.5716677
298.3658663
297.6450799
297.1467072
298.2244136
296.7740538
297.0089201
296.8603558
296.6164655
301.874787
297.1431306
296.7285199
298.3985651
297.0260648
296.8069737
296.7889482
297.747822
297.1158128
296.7224429
296.7260569
297.2751727
296.8827975
296.5681993
296.6953483
296.6080163
296.5704733
297.3528303
296.8381032
297.0681057
296.8117165
297.4403309
296.9152271
296.6483996
296.6149396
296.7015941
296.8659289
296.6835773
296.7827914
296.541368
296.5553206
296.6079994
297.0990755
296.7292012
297.0022933
297.0401206
297.1753602
297.0360945
296.9370302
299.8603775
302.5737119
302.6832357
299.4313886
296.6923287
296.9347866
296.8900844
301.4496849
296.9715548
296.9760846
301.0266359
297.4515401
297.0273271
296.5922936
296.9388735
296.9110255
296.5609696
296.8626937
296.8465638
296.8359684
296.9601668
297.012927
297.7837963
296.7725486
296.9400771
296.9496622
296.5212079
298.8726487
297.6966893
296.844699
296.6927644
296.853713
296.9396776
296.7236869
299.2354272
296.8009758
296.7643401
297.0457785
297.0330046
297.1653641
296.7674054
296.7909614
298.7776928
296.7531312
296.9819658
296.6090573
297.250451
296.9928026
296.8337954
296.6092184
296.7052565
296.9486916
296.8073686
296.8306641
296.7596686
296.7991027
296.7483221
297.1220955
296.7602455
297.0259927
296.8195992
296.5560538
296.9144248
296.7838697
296.9112413
297.6223076
302.8818362
297.1188266
299.4228096
298.5110035
297.051288
296.9629657
298.1713541
296.5104628
296.6582652
296.4096233
297.2861972
301.3729418
298.3884901
297.6257073
297.1336704
299.74803
300.3039511
299.4483231
297.0285838
297.6096629
300.1874647
297.2620319
298.9208296
298.2190801
296.434672
296.7602881
297.8250167
297.5222374
298.4568515
297.6858537
298.3705799
296.9610519
296.8866958
297.3722497
296.889685
296.4637703
296.7121217
296.8795455
297.9186149
297.0044634
296.8224534
298.2640585
296.8362607
296.8749407
296.8836811
296.7593902
296.5687796
296.6779528
296.5497421
296.7192992
296.9226781
296.8123964
296.783374
296.7242765
297.7787939
297.0889392
296.7964095
296.7046596
296.7910697
297.0475823
296.9242128
297.4964281
297.179727
296.9751414
296.7159494
296.9955756
296.8495152
296.5221903
296.7011334
297.3928614
297.406003
296.7857315
296.797776
297.4744398
296.6138234
296.9765854
296.8270694
296.7781828
297.1929224
296.8880358
296.8227827
296.9084759
296.6869146
297.3408134
296.5555184
296.7859257
296.9427883
297.3781983
296.6960049
296.6818206
296.7975686
296.8665702
296.8636368
296.7704482
303.8982776
297.5506383
296.786636
296.5640552
296.9432967
296.4503982
296.8868772
296.9818113
296.8945833
297.1730207
296.889824
296.9141173
296.5980859
297.0058234
296.6272936
297.423452
296.9634521
296.85189
297.099029
296.9395294
296.7361739
301.0997035
299.3257108
296.956302
296.4418356
296.8450246
296.9748313
296.9506467
296.8484366
296.7091463
296.9021
297.1409985
296.7994
297.4507051
296.716735
297.790255
296.7983115
296.6290883
296.9297482
300.3007178
297.5792737
297.0108991
296.5412697
296.9840235
296.5768578
296.8758362
297.4362064
296.8406905
296.8809298
296.4796377
296.7143429
296.8449908
296.5182485
300.9103668
296.5949038
296.7099734
296.7804782
296.5609045
296.4610603
297.0516607
296.6877199
296.7401337
296.9863932
296.8333246
296.6052256
296.8568442
297.4868634
297.194483
298.0102106
297.944065
296.9012066
297.0936218
296.8822672
297.8812042
297.0486544
296.4840285
296.4922845
296.8639187
297.2249117
297.123886
297.0689541
296.9426467
296.790488
297.1592509
296.8813329
296.8789724
301.1616217
296.8523826
296.8685938
297.0118835
296.9158067
296.8795672
297.3258933
297.3394078
296.6550808
299.857704
297.053683
296.5415815
297.0069646
296.8037972
296.6581479
296.9125923
297.1883691
302.8631794
301.1071335
297.5415409
297.2312458
297.0511453
297.167659
296.7151243
297.1349542
297.2791361
303.4266072
300.2097967
298.3498629
297.0695641
297.4682787
296.8421045
297.1378571
297.0296907
297.083032
297.551535
297.1367767
297.5273967
297.0710282
296.8831324
301.0177556
297.1960907
296.7312558
296.7276541
296.5142466
296.7067329
296.8260806
296.6467089
297.1770891
296.69804
296.9054919
297.7270986
297.3941676
296.9165832
296.9676872
296.8230996
296.5406407
296.7863418
296.6320499
296.9682607
296.509053
296.4952421
296.9314135
296.5539674
296.810764
297.2285754
296.6121205
296.8678851
296.6636274
297.0240982
297.1374328
296.8037074
296.7793428
296.6225285
296.8165576
296.7369891
296.9085959
302.8176198
302.3985735
299.4788656
298.1291533
297.7368423
296.569581
296.5118378
296.8049894
296.9042175
296.7960686
296.4504819
296.866768
296.890876
299.6909409
298.2924595
296.429034
297.0032249
297.0207458
297.5162599
297.0345768
297.0252518
299.5012443
297.3823314
297.0891795
297.1904101
296.5985758
296.4521865
296.8450376
296.7868135
296.4645299
297.0418569
296.8066179
296.413609
296.724726
297.0253549
297.0917424
296.9024026
297.0742325
298.5398579
296.9912386
302.6099255
300.523256
296.9461161
296.8497597
296.5649906
297.6855772