/*--------------------------------*- C++ -*----------------------------------*\
  =========                 |
  \\      /  F ield         | OpenFOAM: The Open Source CFD Toolbox
   \\    /   O peration     | Website:  https://openfoam.org
    \\  /    A nd           | Version:  7
     \\/     M anipulation  |
\*---------------------------------------------------------------------------*/
FoamFile
{
    version     2.0;
    format      ascii;
    class       labelField;
    location    "60/lagrangian/coalCloud";
    object      origId;
}
// * * * * * * * * * * * * * * * * * * * * * * * * * * * * * * * * * * * * * //


2500
(
74
192
157
105
229
76
191
216
16
172
40
173
50
270
14
17
62
119
144
24
160
136
141
330
42
3
179
93
120
289
258
218
177
18
152
360
61
135
207
190
247
164
384
190
43
35
340
102
26
193
372
232
9
322
245
179
144
377
410
198
376
373
358
328
195
258
102
32
487
315
363
411
200
283
402
332
169
148
498
349
361
194
51
146
34
70
67
54
12
228
41
65
35
214
43
110
60
143
154
38
223
156
35
56
90
201
119
114
149
82
62
284
100
19
30
33
203
219
199
68
49
151
31
79
22
5
117
146
142
191
264
259
7
253
156
293
211
222
137
277
44
188
339
261
94
3
74
301
146
147
0
65
209
2
26
125
170
50
199
36
244
119
265
95
361
405
145
349
306
320
338
186
182
346
37
126
375
362
249
112
197
125
372
317
260
360
283
340
325
121
18
89
116
28
96
148
155
53
106
307
33
266
178
69
180
291
67
66
196
49
111
32
223
120
32
120
162
87
89
287
271
25
29
255
39
152
133
122
115
92
328
300
327
299
71
86
59
313
319
308
353
246
292
483
263
265
136
272
14
335
274
314
83
139
33
116
362
329
157
296
413
361
478
112
219
331
7
382
324
379
409
419
316
194
292
26
230
430
208
401
395
305
517
270
372
287
473
257
496
477
244
478
204
150
50
204
106
29
232
112
167
158
241
11
51
158
166
49
95
168
221
236
237
137
187
84
194
188
38
43
262
110
15
205
78
210
254
187
71
240
151
182
358
88
250
137
189
167
145
227
350
287
183
181
108
233
317
296
83
370
363
241
357
393
252
217
227
167
266
281
164
186
174
98
268
429
103
361
247
382
220
321
58
126
189
239
253
100
78
43
150
35
244
17
217
97
198
52
16
174
75
23
245
36
20
208
180
129
4
84
229
89
234
341
25
1
151
143
39
113
59
105
233
167
13
261
3
90
133
107
39
206
356
1
61
156
330
55
159
175
6
30
115
224
283
333
182
154
262
73
45
208
120
310
97
251
33
281
117
374
350
261
197
222
206
335
381
47
257
376
129
185
238
173
214
102
278
57
388
172
236
436
64
371
288
14
8
297
56
456
331
22
135
54
81
168
166
2
254
209
63
17
104
77
138
45
250
202
133
110
70
48
131
218
252
203
276
265
73
331
130
59
246
184
59
101
221
354
46
332
92
220
264
87
200
185
256
103
123
273
196
307
10
210
12
224
316
179
127
90
212
243
189
242
283
285
256
288
234
34
153
111
169
155
106
96
183
16
276
326
432
281
53
280
269
295
275
213
319
145
328
282
62
134
212
315
326
322
122
301
3
113
248
192
314
274
128
290
130
8
153
299
98
109
102
165
31
185
237
94
266
58
99
80
149
225
162
55
10
122
230
145
53
63
19
23
48
101
12
153
320
285
275
231
229
352
256
234
342
315
305
326
95
251
122
124
318
356
211
154
163
47
350
248
248
240
144
353
88
337
11
217
354
280
134
389
404
6
484
287
235
301
323
322
473
378
268
203
334
295
376
47
70
88
4
128
87
121
150
61
159
12
114
209
24
64
18
100
52
111
69
31
8
68
86
136
74
198
147
15
53
66
107
28
86
236
136
168
216
280
249
155
161
278
15
56
68
34
51
176
252
113
181
61
165
378
335
6
7
262
274
158
123
85
176
205
2
139
234
243
173
98
342
91
79
289
140
13
334
180
45
13
290
132
374
355
325
346
404
220
267
333
180
164
380
206
207
387
129
118
286
63
222
213
85
148
163
121
135
71
49
178
74
4
131
128
159
142
108
186
0
2
81
259
64
47
69
71
28
72
140
82
138
75
85
80
65
73
245
24
78
54
76
19
125
60
254
80
223
213
239
204
166
267
101
15
242
77
196
201
269
10
134
105
5
81
46
216
280
73
268
13
45
132
54
250
278
111
42
165
112
93
63
242
78
221
211
131
170
217
32
9
225
225
161
303
237
263
271
46
152
118
58
27
188
68
295
206
195
25
1
130
23
19
118
224
171
93
135
114
250
77
247
204
187
29
99
44
0
240
48
46
129
76
273
27
221
146
264
321
76
30
369
365
41
52
172
235
207
153
160
397
181
358
86
241
127
4
324
213
448
398
99
318
7
357
296
349
297
70
125
415
357
431
358
158
9
218
434
69
319
432
231
372
52
364
379
298
279
359
402
498
362
383
161
194
100
231
205
345
163
202
104
91
132
5
321
178
75
108
117
302
162
82
31
162
56
176
87
96
66
34
57
103
21
24
104
55
205
143
39
253
272
165
406
42
179
170
350
353
92
215
191
251
360
286
308
105
23
269
254
186
374
260
312
220
138
40
18
101
95
25
157
29
226
255
199
347
305
304
171
195
311
429
402
343
192
452
198
219
410
93
10
380
329
257
389
355
67
391
252
394
446
314
503
375
270
11
64
140
171
77
166
5
141
21
121
57
110
233
255
0
37
210
200
72
152
108
88
40
188
132
197
123
55
218
48
115
36
156
41
44
172
169
150
83
28
38
79
42
175
468
79
170
184
222
62
236
89
149
251
107
348
196
214
184
8
238
92
85
351
246
36
60
376
114
266
118
94
21
143
365
354
288
284
60
147
140
419
307
336
272
37
271
134
190
230
371
296
339
201
157
193
364
209
352
72
404
133
249
50
367
214
291
126
26
459
498
538
455
364
424
208
366
294
300
554
340
263
499
396
427
474
443
249
532
347
465
109
472
233
489
316
258
585
604
177
313
160
444
347
495
422
551
412
473
289
431
286
497
605
434
531
560
552
471
556
257
429
505
492
542
396
388
487
313
356
282
1
433
285
293
113
189
392
243
330
144
415
57
475
295
355
260
191
272
212
440
304
184
116
523
423
458
238
369
359
500
323
247
420
450
414
501
416
502
6
480
107
338
11
154
365
329
485
611
579
634
309
587
541
288
514
380
454
398
407
594
448
476
536
421
524
469
526
341
334
435
470
535
343
581
412
411
367
312
386
466
383
354
447
368
363
286
456
377
277
418
545
323
519
270
446
461
351
582
508
561
22
99
344
486
294
572
391
537
20
453
527
228
449
481
488
306
159
482
490
506
559
397
536
539
381
436
528
557
530
449
572
187
620
489
546
549
215
417
425
464
548
564
366
597
518
441
593
557
563
468
379
545
518
215
469
481
193
181
386
325
98
240
65
366
401
371
348
419
355
16
190
123
570
396
211
38
408
294
517
203
326
109
279
418
535
255
183
200
447
321
388
385
556
285
454
303
472
368
275
574
259
467
379
339
421
317
337
529
528
502
616
534
477
345
482
522
513
385
365
91
27
199
306
260
91
27
237
407
386
21
399
275
164
408
267
367
343
339
226
349
416
342
271
404
151
332
303
263
14
279
421
395
282
585
533
493
516
409
384
419
549
377
422
486
414
389
512
542
559
466
453
268
177
444
532
505
408
357
378
636
627
572
412
141
30
521
369
457
483
424
413
464
507
382
248
484
348
445
310
309
40
308
370
457
142
291
264
555
403
387
273
456
525
452
318
9
491
277
127
550
193
417
171
109
126
298
366
312
337
397
336
511
479
442
564
561
605
441
480
446
438
394
406
548
370
327
392
336
84
318
360
72
633
644
584
634
568
420
579
624
344
541
499
640
426
543
551
468
639
405
539
238
368
331
444
332
324
96
281
427
443
371
340
290
423
392
192
420
498
507
452
515
347
175
389
534
411
407
367
409
513
293
463
520
97
253
423
494
335
462
215
430
495
398
495
413
418
336
461
341
494
525
487
513
385
460
503
507
451
574
463
173
502
351
450
369
228
201
338
291
401
267
384
314
333
406
345
310
381
301
97
137
81
368
155
375
185
364
315
106
403
312
514
320
239
320
82
449
528
230
103
391
370
457
477
396
415
402
390
417
494
37
386
399
447
530
308
414
462
544
481
235
475
593
397
451
497
554
323
410
588
572
500
485
540
590
535
527
210
416
597
306
294
227
141
127
284
130
84
330
117
259
316
258
231
168
455
245
486
235
273
202
124
344
224
333
161
216
58
182
197
75
163
493
327
342
276
128
139
17
426
20
309
427
343
94
442
437
421
493
298
138
464
539
435
383
90
219
534
474
441
195
523
499
524
575
545
478
387
431
459
439
471
488
345
606
300
563
284
608
445
302
472
400
430
304
392
311
436
470
124
359
276
265
405
484
382
528
290
425
274
313
465
428
395
175
116
483
400
425
256
289
474
346
413
439
524
509
519
384
468
475
66
212
455
493
533
351
454
469
478
232
435
460
523
428
430
383
532
496
529
506
510
508
525
492
359
352
385
461
44
445
403
293
241
225
406
414
443
517
458
505
510
244
344
309
303
119
497
449
337
410
462
324
501
387
485
501
462
207
480
262
176
22
391
353
589
590
495
522
444
338
434
400
470
506
399
491
508
506
526
539
401
453
467
482
451
465
448
537
577
202
489
334
310
570
597
469
431
586
362
496
390
604
580
373
463
443
297
381
239
298
377
223
488
147
292
454
400
80
436
20
327
305
174
139
426
322
477
416
417
229
131
460
328
439
437
302
160
424
490
307
464
311
226
523
527
466
177
428
547
520
452
440
418
408
363
325
304
51
317
142
292
282
542
514
422
390
393
104
467
341
540
299
242
603
518
525
571
507
459
526
226
589
424
174
460
568
590
540
629
602
599
550
571
579
427
586
532
575
633
388
630
629
595
567
591
522
574
568
479
543
580
544
422
433
616
601
442
515
547
556
521
547
456
438
517
608
516
569
465
527
591
570
311
625
627
504
618
467
606
297
378
622
329
613
434
510
552
583
615
612
553
509
497
533
584
596
580
589
514
269
610
428
623
604
538
587
617
630
115
279
588
578
546
459
607
566
429
632
619
565
610
621
614
624
576
631
600
598
617
588
622
558
628
603
576
615
632
592
398
302
562
580
540
611
575
299
451
599
595
412
415
553
536
550
595
603
561
558
577
557
585
599
432
555
588
520
524
578
601
621
511
437
531
560
620
612
373
450
638
593
509
375
503
606
593
601
149
544
596
380
592
597
526
515
575
596
582
619
504
346
614
600
623
613
521
496
405
590
635
508
474
530
440
631
628
563
423
463
592
490
458
581
515
553
571
607
554
393
512
569
558
626
565
566
487
537
562
642
589
618
641
643
626
608
637
494
403
609
594
602
625
609
547
598
583
573
586
567
573
611
480
461
471
519
479
503
470
522
531
446
492
584
426
596
577
567
571
373
529
520
420
512
587
504
541
542
603
394
583
602
395
594
546
67
605
545
511
581
432
578
549
533
573
576
599
348
41
595
519
598
483
501
559
529
440
178
232
555
594
585
549
592
586
610
562
577
183
570
476
558
438
516
512
591
472
482
261
466
550
473
538
607
557
319
491
393
510
437
505
601
445
565
564
551
582
425
584
500
544
552
399
228
243
521
484
541
455
536
491
569
604
435
441
561
475
488
560
457
374
448
587
513
390
246
609
471
591
554
543
605
583
569
509
578
492
559
411
479
476
546
551
530
433
516
607
574
502
433
562
278
277
169
538
555
582
450
535
499
606
490
511
504
576
573
394
352
227
602
564
567
481
438
531
407
548
476
486
556
442
447
453
500
300
581
552
83
565
563
485
409
356
534
489
458
548
537
553
124
148
598
600
518
579
600
560
566
439
543
566
568
)


// ************************************************************************* //
