/*--------------------------------*- C++ -*----------------------------------*\
  =========                 |
  \\      /  F ield         | OpenFOAM: The Open Source CFD Toolbox
   \\    /   O peration     | Website:  https://openfoam.org
    \\  /    A nd           | Version:  7
     \\/     M anipulation  |
\*---------------------------------------------------------------------------*/
FoamFile
{
    version     2.0;
    format      ascii;
    class       Cloud<passiveParticle>;
    location    "60/lagrangian/coalCloud";
    object      positions;
}
// * * * * * * * * * * * * * * * * * * * * * * * * * * * * * * * * * * * * * //

2500
(
(0.0001325924206 0.393372099 0.5786712318 0.02782407684) 1 48100 2
(0.0002269862079 0.3830757249 0.5896434823 0.02705380651) 3 48140 2
(3.311802354e-05 0.6350301866 0.05026310073 0.3146735947) 8 48240 1
(5.528136433e-05 0.6247585651 0.3051792074 0.07000694612) 26 48201 2
(9.020058979e-05 0.02206318039 0.586528088 0.391318531) 29 48261 1
(2.321326859e-05 0.4031563871 0.02468827038 0.5721321293) 40 48082 2
(0.0001726650378 0.08540775593 0.4177224768 0.4966971023) 42 48122 2
(6.43703066e-05 0.138962725 0.327878462 0.5330944427) 44 48162 2
(6.559870489e-05 0.2773302611 0.1914402447 0.5311638955) 66 48203 2
(0.000119496764 0.3399798805 0.05453570205 0.6053649207) 68 48243 1
(6.779996988e-05 0.3974480109 0.003078256274 0.5994059329) 81 48104 2
(0.000116617608 0.7570519851 0.04847927779 0.1943521195) 84 48164 2
(0.0003776222395 0.0522465987 0.7657536368 0.1816221423) 86 48204 1
(0.0001402505691 0.4839928585 0.5091496193 0.006717271724) 100 48085 2
(7.214459677e-05 0.1072868727 0.4395980129 0.4530429699) 102 48125 1
(0.0005478007248 0.03868668023 0.5622041434 0.3985613756) 104 48165 1
(0.0004472579175 0.05201799634 0.6833892692 0.2641454765) 107 48225 2
(5.06988413e-05 0.2540083912 0.1826982195 0.5632426904) 109 48265 2
(6.421475807e-05 0.02460975719 0.6686652037 0.3066608243) 129 48266 1
(9.414962208e-05 0.6067854626 0.01404442062 0.3790759672) 141 48107 1
(0.0002020325857 0.4163872713 0.07566709124 0.5077436049) 143 48147 1
(0.0004942153071 0.2810543411 0.3751951592 0.3432562844) 145 48187 2
(0.0002206209821 0.3923478003 0.03956045377 0.5678711249) 147 48227 1
(0.1288290029 0.1512410214 0.06977236781 0.6501576079) 164 523 1
(0.0001203153427 0.1861455462 0.6368082603 0.1769258781) 169 48268 1
(0.0002705257408 0.4557568874 0.2549949953 0.2889775915) 180 48089 2
(0 0.5965943589 0.09136013525 0.3120455058) 182 48129 2
(0.0001422495892 0.5146686373 0.09631336016 0.388875753) 186 48209 2
(0.0937403804 0.7224478605 0.1042519584 0.07955980064) 405 1257 2
(0.35208576 0.146401175 0.4181683914 0.08334467359) 407 1265 2
(0.1793558655 0.1937245802 0.4629268973 0.163992657) 409 1278 1
(0.5674483938 0.05220615134 0.06118752707 0.3191579278) 421 1326 1
(0.6305282122 0.03236405738 0.2396788139 0.09742891652) 423 1333 2
(0.2963290477 0.04293321989 0.6399075165 0.02083021589) 447 1344 2
(0.3750423481 0.1500639831 0.4234203036 0.05147336527) 460 1383 1
(0.614669897 0.09587557156 0.03212561607 0.2573289154) 462 1450 1
(0.6716862475 0.04637447699 0.240897422 0.04104185357) 465 1399 1
(0.7955187129 0.1714019984 0.01252211173 0.02055717698) 487 288 1
(0.228486577 0.2264193478 0.5067403387 0.03835373641) 489 1472 1
(0.2826476455 0.1909675725 0.3543847729 0.172000009) 501 1509 1
(0.6331324767 0.1900608771 0.08339374436 0.09341290181) 503 1577 2
(0.2992708499 0.1231507147 0.06976397598 0.5078144594) 505 1521 1
(0.2821719311 0.06588251543 0.01914794075 0.6327976127) 508 1590 1
(0.6736784781 4.784201705e-05 0.2004923287 0.1257813512) 520 1627 1
(0.005736448119 0.3293493907 0.3120584694 0.3528556918) 522 1634 1
(0.07476949364 0.2041295623 0.6647613601 0.05633958388) 524 1640 2
(0.5644121647 0.03459907394 0.05994826534 0.341040496) 526 407 1
(0.09883176881 0.5016042084 0.02608515256 0.3734788703) 548 1714 2
(0.1563393133 0.07208079845 0.3673635794 0.4042163088) 549 1715 2
(0.5568334335 0.01908634023 0.1732463851 0.2508338412) 561 1748 2
(0.2597937724 0.02879747601 0.046787463 0.6646212886) 563 1755 2
(0.2498118736 0.1429267993 0.2528694281 0.354391899) 566 1707 1
(0.283968626 0.5021025116 0.05914496637 0.154783896) 587 1831 2
(0.2699833713 0.4730039514 0.05995173209 0.1970609452) 802 2491 2
(0.1630688907 0.2706578957 0.09440106812 0.4718721455) 826 2577 1
(0.2390196604 0.1110032354 0.6018604885 0.04811661576) 848 2647 2
(0.1040646043 0.02044240032 0.7124516851 0.1630413103) 867 2702 2
(0.2438271168 0.2120004095 0.3913103153 0.1528621583) 984 3064 1
(0.04469846535 0.498228684 0.2617888352 0.1952840154) 1204 2499 2
(0.03968991529 0.6542077051 0.2365810618 0.0695213178) 1228 3823 2
(0.0531438029 0.3806341574 0.2670698808 0.2991521589) 1240 3802 2
(0.5214011541 0.3749378084 0.06380003822 0.03986099932) 1242 3869 1
(0.458168129 0.06216939534 0.1822599867 0.297402489) 1244 2637 1
(0.01650696084 0.3959984956 0.3159016627 0.2715928808) 1261 3928 2
(0.5334898576 0.1995906553 0.2236611995 0.04325828759) 1283 3934 2
(0.4611232119 0.2950889723 0.004584288827 0.239203527) 1285 3940 2
(0.5400009286 0.204488107 0.2066104102 0.04890055415) 1288 2771 1
(0.6553236935 0.1569780539 0.0106516247 0.177046628) 1300 2807 2
(0.2192471354 0.4737096048 0.2276835585 0.07935970126) 1302 4053 2
(0.1015497346 0.3360201606 0.3738058194 0.1886242854) 1304 4059 2
(0.03132486922 0.02257390101 0.4087819963 0.5373192335) 1306 2826 1
(0.5199884536 0.05957267614 0.163631527 0.2568073432) 1328 4131 2
(0.7245163264 0.2326481958 0.009393300081 0.0334421777) 1341 4167 1
(0.3844371254 0.191131563 0.2817579098 0.1426734019) 1343 2939 1
(0.645966738 0.213935846 0.1163280368 0.02376937923) 1345 4184 2
(0.3815022015 0.2025977447 0.1493100388 0.266590015) 1347 4191 2
(0.08112483301 0.6062713306 0.075866955 0.2367368814) 1360 4229 1
(0.1451363003 0.4870771693 0.2086853726 0.1591011578) 1369 4253 2
(0.2378462836 0.4385888232 0.110260585 0.2133043081) 1382 4293 2
(0.5093150551 0.4544851827 0.002017285071 0.03418247716) 1386 4308 1
(0.1115973957 0.4798013315 0.038003967 0.3705973059) 1388 4315 2
(0.0003619712498 0.4339092418 0.2441493983 0.3215793887) 10687 49110 2
(8.69152555e-05 0.01956038102 0.5311800335 0.4491726702) 10690 49170 2
(0.0001503135379 0.32406717 0.1185345268 0.5572479897) 10693 48991 2
(0.0001710549861 0.2790469284 0.08111202041 0.6396699962) 10695 49031 2
(0.0002674680925 0.2372536913 0.03143441823 0.7310444223) 10697 49071 2
(3.489548963e-05 0.8552587663 0.06980292367 0.07490341456) 10701 49151 2
(0.0001168316281 0.02865460311 0.7030323022 0.2681962631) 10702 49171 2
(0.0003036821588 0.2196670145 0.2156199446 0.5644093587) 10704 48972 1
(0 0.3425567948 0.6510627019 0.006380503291) 10706 49012 2
(0.0001938560051 0.2678022563 0.4635373574 0.2684665303) 10708 49052 2
(0.0003318903845 0.2108865531 0.2662823758 0.5224991806) 10710 49092 2
(0.0002210675707 0.6690025586 0.2354909299 0.09528544392) 10713 49152 1
(0.0003386805891 0.040014636 0.875069229 0.08457745444) 10714 49172 2
(0.0001412402983 0.1192317068 0.6942246379 0.186402415) 10721 49073 2
(0.000220822994 0.3713706071 0.5712464885 0.05716208138) 10724 49133 2
(3.833367979e-05 0.386767232 0.3119638495 0.3012305848) 10729 48994 2
(9.138329021e-05 0.2389213671 0.01778138901 0.7432058606) 10731 49034 2
(0.0005052022698 0.1248703934 0.7516904758 0.1229339285) 10735 49114 1
(0.1034442024 0.1360856856 0.5135904197 0.2468796923) 10737 49154 1
(0 0.0660625615 0.04901467622 0.8849227623) 10738 49174 2
(0.0003771011895 0.2258594932 0.68195362 0.09180978561) 10742 49015 2
(9.406888233e-05 0.01937905915 0.2575534044 0.7229734676) 10744 49055 2
(0.0003246638288 0.1105490823 0.6737431711 0.2153830828) 10750 49175 2
(2.679469798e-05 0.5370629644 0.2457582476 0.2171519933) 10752 48976 2
(5.46582843e-05 0.1884556044 0.5724781221 0.2390116152) 10756 49056 1
(0.0004370363539 0.4998583216 0.2787572614 0.2209473807) 10758 49096 2
(0.0001573065008 0.2584996344 0.05021318627 0.6911298729) 10760 49136 2
(6.466146058e-05 0.1458734248 0.019567238 0.8344946758) 10762 49176 1
(0.0003024664962 0.1422644542 0.4904360213 0.366997058) 10765 48997 2
(0.0001217908074 0.2149540046 0.7015996962 0.08332450842) 10770 49097 1
(0 0.3553920984 0.3458447122 0.2987631894) 10772 49137 2
(0.0005048133741 0.4250497148 0.4790729473 0.09537252452) 10779 49038 2
(6.809445405e-05 0.3067078718 0.3518724533 0.3413515804) 10784 49138 1
(0.0001616315857 0.2392655284 0.04371215417 0.7168606858) 10786 49178 2
(0.000270274128 0.1630470248 0.5245508346 0.3121318665) 10788 48979 2
(0.0004570356104 0.3562616483 0.3242284595 0.3190528566) 10793 49079 2
(0.0001377857348 0.3172217955 0.2336705041 0.4489699147) 10798 49179 2
(0.1654697122 0.2792829282 0.04844014871 0.5068072109) 10923 32003 2
(0.1796824758 0.405398395 0.1060152166 0.3089039126) 10926 31978 1
(0.02678696453 0.5574732235 0.2515192128 0.1642205992) 10929 32018 2
(0.6489159696 0.004567311425 0.3210311841 0.02548553483) 10932 32031 2
(0.5949371164 0.06016523358 0.0001827126342 0.3447149374) 10934 32035 1
(0.4775143235 0.1219897648 0.3164078639 0.0840880478) 10936 32041 2
(0.529218314 0.4176056216 0.02111639907 0.03205966536) 10939 32016 1
(0.3477313863 0.0421074808 0.1018452686 0.5083158643) 10941 32053 2
(0.0433422383 0.2125479859 0.09769262448 0.6464171513) 10942 32059 2
(0.3286235653 0.009807245819 0.1866734821 0.4748957068) 10949 32079 1
(0.1670846742 0.1092440194 0.3069768699 0.4166944366) 10951 32085 1
(0.06538257584 0.2027125773 0.2591592631 0.4727455838) 10954 32094 2
(0.5393525601 0.0648858933 0.3350666287 0.06069491795) 10957 32068 1
(0.1348293868 0.181519317 0.09752171349 0.5861295828) 10959 32074 2
(0.1090634686 0.1822466947 0.4098826759 0.2988071607) 10966 32129 2
(0.5286641711 0.06809877453 0.0112700054 0.3919670489) 10970 32140 1
(0.1781086702 0.259439203 0.2504263577 0.312025769) 10972 32146 2
(0.05403252631 0.3460709929 0.5812198546 0.01867662623) 10975 32152 2
(0.2291826241 0.1078217674 0.04613518921 0.6168604193) 10977 32127 1
(0.1859885443 0.04669471293 0.387753871 0.3795628718) 10978 32164 1
(0.1430125773 0.2671681908 0.441608612 0.1482106199) 10980 32135 1
(0.01101956943 0.07079025925 0.2581508588 0.6600393125) 10983 32178 1
(0.4232004524 0.1240601506 0.1784345516 0.2743048453) 10986 32184 2
(0.5348467928 0.3070223373 0.100379714 0.05775115591) 10988 32195 1
(0.616495719 0.02772408675 0.1684290655 0.1873511287) 10993 32207 2
(0.01999245269 0.3516494942 0.07322053684 0.5551375163) 10997 32220 1
(0.2454836131 0.2043166274 0.4996648269 0.05053493261) 10999 32225 2
(0.1661742459 0.2896019253 0.3809601373 0.1632636914) 11002 32231 2
(0.4166590251 0.1272236728 0.06645583317 0.3896614689) 11007 32245 2
(0.0376651844 0.3962256105 0.03399843652 0.5321107686) 11011 32261 1
(0.04809606592 0.2963499601 0.4577660394 0.1977879346) 11013 32266 2
(0.6712690132 0.02657037118 0.1645736443 0.1375869714) 11016 32276 1
(0.1045269392 0.3119311709 0.09500589835 0.4885359916) 11021 32286 2
(0.4765707615 0.03810994903 0.08552147581 0.3997978136) 11026 32306 1
(0.6779478548 0.2255137778 0.01024431055 0.08629405687) 11030 32316 1
(0.433324997 0.1551990331 0.246716194 0.1647597759) 11035 32327 2
(0.3281773761 0.07192481599 0.1291346197 0.4707631883) 11038 32341 1
(0.1707774435 0.2763072812 0.3292265302 0.2236887452) 11167 32717 1
(0.2370575638 0.02598325108 0.392239569 0.3447196161) 11193 32792 1
(0.1583253228 0.1637016125 0.6339644859 0.04400857887) 11401 32699 1
(0.2872370413 0.5318169562 0.1433007409 0.03764526159) 11405 33375 1
(0.2593567553 0.09777484947 0.1956267804 0.4472416148) 11409 32723 2
(0.3233085062 0.1155170968 0.4064745976 0.1546997994) 11415 33404 2
(0.6483470319 0.07867835908 0.1378658168 0.1351087922) 11417 33444 1
(0.07889311255 0.006433539224 0.3487334222 0.5659399261) 11419 32752 2
(0.2510612626 0.2950087756 0.2210741153 0.2328558466) 11422 33460 1
(0.3991762265 0.2117075046 0.140087338 0.2490289309) 11424 33465 2
(0.601347962 0.01575743855 0.3416089005 0.041285699) 11426 32772 1
(0.1466159598 0.3074897631 0.4181092008 0.1277850763) 11441 33480 1
(0.5796750305 0.1627325838 0.1783220554 0.07927033034) 11443 33486 2
(0.6466873538 0.060759047 0.01393883995 0.2786147592) 11449 32839 1
(0.0630168151 0.1968017627 0.4553192989 0.2848621233) 11451 33509 2
(0.01823206593 0.3691584733 0.4701987312 0.1424107296) 11455 33552 1
(0.2875827885 0.03088162315 0.3605475622 0.3209880262) 11457 33558 1
(0.1412428424 0.5286800727 0.08995818807 0.2401188968) 11458 33564 2
(0.4411012745 0.07716122949 0.3727044191 0.1090330769) 11462 33575 1
(0.00516148654 0.6651763315 0.2654821361 0.06418004585) 11464 33581 2
(0.2266253474 0.3283959321 0.4429505803 0.002028140233) 11470 33599 1
(0.5059657065 0.2866625888 0.1357019987 0.07166970593) 11472 33570 2
(0.3498048851 0.5113767553 0.02566637252 0.1131519871) 11476 33617 1
(0.5525327248 0.1597416443 0.04938342343 0.2383422075) 11478 32924 1
(0.1738047205 0.04619287188 0.5354502507 0.2445521568) 11480 33594 2
(0.2798285795 0.0308413741 0.1178706056 0.5714594408) 11482 33635 2
(0.2817509614 0.3532262915 0.1721907949 0.1928319522) 11485 33642 1
(0.09733730549 0.1617742552 0.2324731511 0.5084152882) 11490 33654 1
(0.5804185757 0.2938373445 0.07377701883 0.05196706097) 11492 32965 1
(0.6163532382 0.07203883863 0.1869656521 0.1246422711) 11499 32985 1
(0.2963540226 0.1736478066 0.2246809155 0.3053172553) 11504 33000 2
(0.077166098 0.2022251885 0.2415107563 0.4790979573) 11506 33670 2
(0.3562845267 0.2774466039 0.2096570443 0.1566118251) 11508 33709 1
(0.5722454984 0.02221365342 0.0288141227 0.3767267254) 11513 33025 1
(0.4728232047 0.0819284575 0.1535744504 0.2916738874) 11518 33705 2
(3.057014032e-05 0.7068614208 0.06282891874 0.2302790903) 13443 49260 1
(8.949914815e-05 0.0176830448 0.8846128107 0.09761464537) 13445 49300 2
(0.0001116503728 0.0146220178 0.07231804791 0.9129482839) 13447 49340 2
(6.060497462e-05 0.3523672197 0.4305208879 0.2170512875) 13450 49400 2
(0.0002550666696 0.06779434885 0.6217452459 0.3102053385) 13453 49221 2
(9.012778191e-05 0.002874960353 0.5018884378 0.4951464741) 13456 49281 1
(0.0002598159801 0.5320550637 0.4218985748 0.04578654561) 13460 49361 2
(0.1333650138 0.2042901147 0.234676618 0.4276682535) 13462 39171 1
(7.040843863e-05 0.06767913284 0.4442912695 0.4879591892) 13470 49322 2
(0.000114547588 0.2061469406 0.5501434906 0.2435950212) 13474 49402 2
(0.0001936807143 0.06152051862 0.4400126299 0.4982731707) 13478 49243 2
(0.09724550696 0.1149329175 0.3976408559 0.3901807196) 13481 39221 2
(0.07054612333 0.09532026906 0.2402184022 0.5939152054) 13484 49363 2
(0.0001103716178 0.1265439394 0.01453223082 0.8588134581) 13486 49403 1
(0.0001841837744 0.4386852276 0.1244832521 0.4366473365) 13489 49224 1
(5.971389385e-05 0.1050654767 0.5966853757 0.2981894337) 13493 49304 1
(0.0004446816367 0.01023666149 0.01880676101 0.9705118959) 13494 49324 2
(0.06042658213 0.4045629935 0.3079295047 0.2270809196) 13497 39268 1
(6.467402398e-05 0.417041167 0.1535759038 0.4293182552) 13503 49265 1
(5.337896515e-05 0.05530853721 0.07211332722 0.8725247566) 13506 49325 1
(0.0002428950633 0.1785421297 0.8140215167 0.007193458501) 13509 49385 1
(0.0001338377863 0.0894948936 0.1412275601 0.7691437085) 13510 49405 2
(0.0002679679256 0.3495185021 0.5344323526 0.1157811773) 13512 49206 2
(0.00084459432 0.1191220829 0.8312655701 0.04876775266) 13517 49306 1
(7.158133945e-05 0.05818747777 0.3171632042 0.6245777366) 13522 49406 2
(0.0001447910984 0.2849295346 0.1275751501 0.5873505242) 13526 49247 2
(0.0003840337194 0.6402934458 0.3075912726 0.05173124786) 13531 49347 1
(0.0005966674124 0.9130601277 0.005261029015 0.08108217586) 13533 49387 1
(0.0002411234958 0.03446782243 0.6017411606 0.3635498935) 13534 49407 2
(0.1068068034 0.5395435973 0.2553032663 0.09834633297) 13537 39389 1
(0.5290142629 0.04232195417 0.1812286745 0.2474351084) 13539 39395 1
(0.000849034733 0.4133868535 0.3436020772 0.2421620346) 13541 49308 2
(0.0003343607115 0.3225033243 0.09638179602 0.580780519) 13543 49348 1
(0.5018234185 0.02354587466 0.116392602 0.3582381049) 13545 39377 1
(5.213195794e-05 0.02289713535 0.8542892721 0.1227614606) 13546 49408 2
(0.0006685096679 0.4386230977 0.2474951238 0.3132132689) 13550 49249 1
(0.0001340707391 0.2069658573 0.7247864418 0.06811363019) 13552 49289 2
(0.000283152636 0.04899053774 0.1497914422 0.8009348674) 13554 49329 1
(7.205486148e-05 0.4582254576 0.4170433687 0.1246591189) 13557 49389 1
(0.4790884835 0.09488371122 0.2123107931 0.2137170122) 13680 39793 1
(0.34912045 0.07337008549 0.09140883688 0.4861006276) 13684 32323 2
(0.4157830955 0.1183792924 0.1287630474 0.3370745647) 13687 39814 1
(0.451628662 0.1125356249 0.3633616032 0.07247410987) 13695 39833 2
(0.392452366 0.07052981814 0.07584370983 0.461174106) 13697 39842 1
(0.1278944346 0.1749669952 0.6247794959 0.0723590743) 13704 39862 1
(0.003738096074 0.02201599816 0.1325729199 0.8416729859) 13707 39873 2
(0.3843410282 0.3589945651 0.1511583956 0.1055060112) 13712 39886 2
(0.395569705 0.08913255609 0.435648634 0.07964910483) 13723 39915 2
(0.4547870435 0.1099537937 0.2428050935 0.1924540693) 13726 39893 1
(0.2622775663 0.2746982358 0.06518454361 0.3978396543) 13731 39941 1
(0.4309077874 0.2045825882 0.01105488186 0.3534547426) 13734 39952 2
(0.2298206576 0.1642317044 0.3920064763 0.2139411617) 13738 39962 2
(0.09459721905 0.02692746885 0.5500503947 0.3284249174) 13741 39970 1
(0.1751861385 0.4049099671 0.07149753765 0.3484063567) 13745 39983 1
(0.1573513591 0.2349195222 0.3270298026 0.2806993161) 13748 39988 2
(0.1579321745 0.1547954888 0.6502415219 0.03703081472) 13750 39997 2
(0.2924447569 0.01717451011 0.5233129355 0.1670677975) 13755 40012 2
(0.6263834082 0.04929708142 0.1097630362 0.2145564742) 13759 40025 2
(0.09722131182 0.003649803143 0.2352865256 0.6638423594) 13762 40032 1
(0.2279407324 0.1892837879 0.4593825952 0.1233928846) 13769 40052 2
(0.05268070528 0.3832752266 0.2394723943 0.3245716738) 13783 40095 1
(0.05089473302 0.03503125264 0.4468171601 0.4672568543) 13786 40102 2
(0.1209782654 0.3815287691 0.2057003396 0.2917926259) 13793 40122 2
(0.03626700107 0.7124921649 0.03262122495 0.2186196091) 13797 40136 2
(0.03084039929 0.05805308836 0.6350946439 0.2760118684) 13798 40137 2
(0.1997396165 0.2055430252 0.005841689852 0.5888756685) 13930 40511 1
(0.3582360575 0.03970307539 0.1770051139 0.4250557532) 13954 40546 2
(0.2863971305 0.4438239409 0.1618091353 0.1079697933) 13961 40602 2
(0.4196227916 0.4640504554 0.09724159627 0.01908515673) 13969 40623 2
(0.3812209847 0.0001028294544 0.5365804157 0.08209577017) 13976 40610 2
(0.08192033267 0.02233196358 0.5680217894 0.3277259144) 13980 40657 2
(0.02518991756 0.08404117652 0.675896899 0.2148720069) 14000 40716 1
(0.2717514212 0.2589438243 0.2465788352 0.2227259193) 14006 40728 2
(0.1332568841 0.5419730398 0.1119344881 0.212835588) 14013 40749 1
(0.4222875584 0.09601913154 0.1108804141 0.370812896) 14016 40762 1
(0.0851778849 0.2375000261 0.1987555105 0.4785665785) 14019 40769 2
(0.1550080204 0.3908717616 0.2328252876 0.2212949303) 14030 40115 1
(0.4705320938 0.4456864186 0.02445321912 0.05932826851) 14163 41174 2
(0.02378032071 0.1003777873 0.3001988987 0.5756429933) 14166 41183 1
(0.002906503638 0.4685471934 0.4561944016 0.07235190136) 14168 33735 2
(0.3577268329 0.07492967309 0.419971723 0.147371771) 14173 41206 1
(0.0180837489 0.4310876449 0.2054345899 0.3453940163) 14176 41216 1
(0.2321757371 0.2255309871 0.4693990089 0.07289426692) 14180 40541 1
(0.4155291054 0.3876437014 0.08161461584 0.1152125774) 14190 41256 1
(0.3203124406 0.08147283991 0.3411864218 0.2570282977) 14199 41283 1
(0.07722742926 0.02501013934 0.7621517271 0.1356107043) 14204 41263 2
(0.2852453863 0.03574928545 0.4358243198 0.2431810085) 14206 41303 1
(0.3193105766 0.1197212033 0.2299470897 0.3310211304) 14214 41326 2
(0.3725212722 0.1147677794 0.08668386828 0.4260270801) 14222 41350 2
(0.4872704997 0.1050038502 0.3766200942 0.03110555588) 14224 41321 2
(0.2605489033 0.1064628962 0.05741443864 0.5755737618) 14226 40675 2
(0.1839788885 0.6719904166 0.03446563376 0.1095650612) 14229 41370 2
(0.3995501984 0.04596684809 0.07010281686 0.4843801367) 14237 41390 1
(0.1134074428 0.4593520693 0.3102248373 0.1170156506) 14242 41408 2
(0.2254461011 0.4870346409 0.2360692821 0.05144997595) 14251 41431 1
(0.07026361831 0.3334142692 0.2674473658 0.3288747467) 14254 41443 1
(0.05943155696 0.3237352127 0.4083846157 0.2084486147) 14258 41456 2
(0.2193833653 0.3591052715 0.218135899 0.2033754642) 14261 41463 1
(0.6664493164 0.2665389897 0.01635165157 0.05066004236) 14265 41472 2
(0.299618074 0.04014742229 0.2246505008 0.4355840028) 14272 41492 2
(0.01372871824 0.4865973117 0.1726549098 0.3270190603) 14275 40818 2
(0.03764354285 0.2880416871 0.05073648662 0.6235782834) 14278 41513 2
(0.0002206998462 0.6652486614 0.01030735415 0.3242232846) 10 48280 1
(3.655170803e-05 0.47319524 0.1017551611 0.4250130472) 12 48320 2
(5.950018795e-05 0.08629933667 0.4663621334 0.4472790297) 17 48420 1
(0.0001146540354 0.4533804456 0.3579806583 0.188524242) 19 48460 2
(0 0.1626810998 0.3742438244 0.4630750758) 31 48301 1
(5.868941506e-05 0.3099753055 0.2607005486 0.4292654564) 33 48341 1
(3.21128435e-05 0.5862179305 0.3429701388 0.07077981785) 35 48381 2
(0.000234892553 0.1489816402 0.466594813 0.3841886543) 56 48402 1
(0.0001879730336 0.5851373372 0.01786049149 0.3968141983) 58 48442 1
(0.0001170728733 0.4812883277 0.4885559531 0.03003864627) 70 48283 2
(0.0001545183216 0.498018068 0.409025069 0.09280234473) 72 48323 2
(0.0007323732328 0.567751983 0.2046868145 0.2268288292) 74 48363 2
(0 0.008718594737 0.7189358678 0.2723455375) 79 48463 1
(0.0001823427869 0.06919406363 0.417685884 0.5129377095) 93 48344 1
(6.073613827e-05 0.2755673692 0.3124514711 0.4119204235) 95 48384 1
(0.0002100473034 0.5551891491 0.1174065475 0.3271942561) 97 48424 1
(4.71219757e-05 0.372879335 0.0981839577 0.5288895853) 111 48305 2
(0.0005381501955 0.03321970441 0.6407466387 0.3254955067) 118 48445 1
(0 0.3533908482 0.6247138668 0.02189528497) 132 48326 2
(0.0001898614708 0.4873450342 0.4582205274 0.05424457684) 134 48366 2
(5.148332451e-05 0.6087074574 0.2599887347 0.1312523245) 136 48406 2
(0.0003019195552 0.08462298725 0.4519870088 0.4630880844) 158 48447 1
(0.0007885218794 0.02020831335 0.134432078 0.8445710868) 170 48288 2
(0.0007625659784 0.1404714049 0.465659365 0.3931066641) 172 48328 2
(8.865874841e-05 0.2629877718 0.3124237227 0.4244998468) 174 48368 2
(0.0001564219555 0.4022801127 0.1505192244 0.447044241) 176 48408 2
(0.0003383038647 0.1145462071 0.1472285554 0.7378869336) 195 48389 1
(5.181894742e-05 0.2831467171 0.05139130656 0.6654101574) 197 48429 1
(0.5827928671 0.08430820039 0.1687236603 0.1641752722) 411 1286 1
(0.4560155191 0.2302005034 0.1609546613 0.1528293162) 413 1293 2
(0.5951859483 0.0401107837 0.2349719813 0.1297312866) 436 1371 1
(0.4972703524 0.09334110001 0.2170555553 0.1923329923) 438 1314 1
(0.7068105908 0.1889666052 0.06863896165 0.03558384237) 450 1415 1
(0.6423941268 0.01968521828 0.1326709474 0.2052497075) 452 1359 1
(0.2268712834 0.2314802035 0.3137049778 0.2279435352) 454 1365 1
(0.4206267732 0.1413118387 0.2551618482 0.1828995399) 459 1440 1
(0.005319907352 0.3635880846 0.1144224263 0.5166695817) 471 1478 1
(0.2968192176 0.1877173151 0.1877681457 0.3276953216) 473 1484 1
(0.6894360138 0.04249017153 0.08293381368 0.185140001) 475 1491 2
(0.5301815045 0.1047862765 0.1355052639 0.2295269551) 477 1435 1
(0.3621145643 0.1677510901 0.3251858269 0.1449485186) 498 1560 1
(0.423793654 0.06234720704 0.4142280735 0.0996310654) 510 1597 2
(0.6716111979 0.07201026175 0.03789091369 0.2184876267) 512 1604 1
(0.6700765707 0.1882438269 0.1021526504 0.03952695209) 514 1610 1
(0.3032602886 0.1848530142 0.2297300347 0.2821566625) 516 1554 1
(0.1820302571 0.2462978907 0.1935177008 0.3781541514) 535 1673 1
(0.6353003888 0.03741857472 0.2645584803 0.06272255615) 537 1679 1
(0.4338027724 0.279242434 0.2594843196 0.02747047401) 539 1684 1
(0.4870234032 0.1340088216 0.07074212459 0.3082256506) 551 1721 2
(0.2220544951 0.2384116597 0.4949868431 0.04454700214) 553 1667 1
(0.08698211886 0.1214626277 0.5989784438 0.1925768096) 573 1789 2
(0.4331915628 0.09037267982 0.4428936893 0.03354206802) 575 1795 2
(0.6751681653 0.06350735108 0.2379586233 0.02336586039) 577 1802 2
(0.3022894864 0.1881128445 0.394152992 0.1154446771) 590 1837 2
(0.007377249203 0.3220341236 0.1397591558 0.5308294714) 591 1843 2
(0.2094909741 0.5395959479 0.1551240107 0.09578906731) 599 628 2
(0.4600186975 0.1375530697 0.07983883065 0.3225894021) 815 2543 2
(0.1939444782 0.150259165 0.4418832757 0.2139130811) 817 2552 2
(0.3191985042 0.3737229497 0.1287748972 0.1783036489) 979 3047 1
(0.06395635181 0.1222558465 0.4360042058 0.3777835959) 1210 3764 1
(0.2992009084 0.3751121818 0.2130976871 0.1125892227) 1219 3800 1
(0.4250380936 0.3346507453 0.0738027755 0.1665083857) 1231 3836 2
(0.4212066851 0.3247219195 0.02763016866 0.2264412267) 1233 2603 2
(0.2683194167 0.4438102175 0.1532171812 0.1346531846) 1256 3912 2
(0.470274662 0.1108092271 0.2719228708 0.14699324) 1258 3857 2
(0.5937725537 0.1291161809 0.1748425973 0.1022686681) 1270 2716 1
(0.6086717283 0.1989911652 0.1073210253 0.08501608123) 1272 3900 2
(0.3838029096 0.3827862857 0.1014184119 0.1319923928) 1274 3906 2
(0.01037936272 0.3725523037 0.3320362161 0.2850321174) 1291 4019 2
(0.1429933355 0.4160263441 0.2564369241 0.1845433962) 1293 4025 2
(0.5809255267 0.2910239051 0.03120367997 0.09684688825) 1295 4031 2
(0.1501430147 0.503192596 0.344886119 0.001778270249) 1299 4039 2
(0.6632944413 0.07587165742 0.1415454442 0.1192884571) 1317 2859 2
(0.8211001775 0.04011024104 0.07088257398 0.06790700746) 1330 4137 1
(0.6752735097 0.05223571723 0.1300375287 0.1424532444) 1332 2905 2
(0.686385886 0.1007554699 0.08843275649 0.1244258876) 1334 4146 1
(0.06901503101 0.5751860694 0.2003468822 0.1554520174) 1339 4103 1
(0.1076354048 0.3788255081 0.05227306495 0.4612660221) 1356 4156 1
(0.2648327021 0.3141718357 0.1879313454 0.2330641168) 1357 4219 1
(0.08715593418 0.6459632258 0.1085640585 0.1583167815) 1371 4259 1
(0.2350352805 0.4759993179 0.1334920235 0.1554733781) 1372 4265 1
(0.5345270942 0.3569470189 0.03956014107 0.06896574588) 1374 4271 1
(0.5038457177 0.07818761086 0.3590484713 0.05891820014) 1396 4278 2
(0.01219930259 0.005969676656 0.7477204276 0.2341105931) 1399 4348 2
(0.0001898906118 0.1627608639 0.4845647373 0.3524845082) 4802 48520 1
(0.0001666319972 0.04512226893 0.7630596511 0.191651448) 4804 48560 2
(0.000135048341 0.3490184874 0.4605339944 0.1903124698) 4810 48680 2
(0.0001739349054 0.4122202976 0.08965793687 0.4979478306) 4819 48621 2
(0.0001047823545 0.2706572018 0.6565415877 0.07269642815) 4822 48681 2
(0.0001129445791 0.1489916078 0.1805203653 0.6703750824) 4824 48482 2
(0.0001640610629 0.5502661455 0.3988383134 0.05073148) 4828 48562 1
(6.910392964e-05 0.5846412659 0.2730470213 0.1422426089) 4830 48602 2
(0.0001681338675 0.1513895377 0.04518013071 0.8032621977) 4834 48682 1
(4.256798347e-05 0.0756394191 0.6852819931 0.2390360199) 4841 48583 2
(0.0008277767289 0.5149130265 0.0897917949 0.3944674019) 4844 48643 2
(0.0001023911417 0.5203192412 0.1555784384 0.3239999292) 4849 48504 2
(0.0002846030851 0.2931929954 0.03769989044 0.6688225111) 4851 48544 2
(6.615153187e-05 0.2855070827 0.3843156002 0.3301111656) 4856 48644 2
(1.872996334e-05 0.130768706 0.03694400274 0.8322685613) 4858 48684 2
(0 0.4095001994 0.4870017398 0.1034980608) 4863 48545 1
(3.494990677e-05 0.5844358722 0.1843007358 0.2312284421) 4865 48585 1
(4.837535449e-05 0.5662611507 0.03849156832 0.3951989056) 4867 48625 1
(6.262158683e-05 0.09004578648 0.2675241506 0.6423674413) 4870 48685 2
(4.450084896e-05 0.5241366532 0.1395871987 0.3362316472) 4872 48486 2
(8.47442834e-05 0.1466284032 0.2817751951 0.5715116574) 4876 48566 1
(0.0003623826719 0.002307629997 0.793387168 0.2039428193) 4878 48606 2
(0.009711351488 0.7677035923 0.1779181387 0.04466691752) 4881 14730 1
(0 0.05784254908 0.4428697123 0.4992877386) 4882 48686 2
(5.609282722e-05 0.6931900625 0.2699631485 0.03679069617) 4886 48527 2
(6.41463776e-05 0.03861273857 0.6177299663 0.3435931487) 4894 48687 2
(5.371610614e-05 0.6431772981 0.09460304962 0.2621659362) 4896 48488 2
(0.1775907311 0.1692743248 0.6405760458 0.01255889835) 4898 14779 1
(7.333106593e-05 0.05967430079 0.38989172 0.5503606482) 4899 48548 2
(7.175825408e-05 0.07698185842 0.03233092542 0.8906154579) 4901 48588 2
(0.0001056716498 0.7536808003 0.09475682517 0.1514567029) 4905 48668 1
(0.0001598069179 0.02177889723 0.7940906124 0.1839706835) 4906 48688 2
(0.0003478069103 0.01660423816 0.4608903884 0.5221575665) 4911 48549 1
(2.879251187e-05 0.5520232546 0.4457949265 0.002153026326) 4913 48589 2
(0.0001993491501 0.6024413885 0.04970043394 0.3476588284) 4915 48629 2
(0.0003929637692 0.4996347667 0.1763864579 0.3235858116) 4917 48669 1
(0.2446619399 0.2565735798 0.06139897213 0.4373655082) 5046 15219 1
(0.2422982671 0.09091929877 0.4366024161 0.230180018) 5049 15224 1
(0.1402737933 0.1338357332 0.1117812127 0.6141092607) 5052 15193 2
(0.05503359563 0.37200035 0.396709608 0.1762564464) 5055 15248 2
(0.4782384614 0.2072349666 0.2822834265 0.03224314547) 5058 15259 2
(0.3187311057 0.2672055934 0.294457943 0.1196053578) 5066 15281 2
(0.06615538236 0.2763110837 0.5084589754 0.1490745585) 5071 15296 1
(0.07139723526 0.1633046184 0.6554071935 0.1098909528) 5072 15264 2
(0.344605201 0.1258780497 0.5261954248 0.003321324442) 5085 15333 1
(0.4023744426 0.2857540369 0.2175195955 0.09435192498) 5088 15345 1
(0.4782997254 0.09877223041 0.3602205619 0.06270748233) 5090 15350 2
(0.06447038746 0.3397682857 0.4780582475 0.1177030793) 5092 15356 2
(0.3277267438 0.3666128202 0.1205002775 0.1851601585) 5095 15362 2
(0.2170950404 0.1319138592 0.570472285 0.08051881539) 5098 15374 2
(0.07977358477 0.2979556647 0.3761330314 0.2461377191) 5104 15392 1
(0.5027496799 0.04794235302 0.1290545554 0.3202534117) 5106 15399 2
(0.1122269508 0.5900284527 0.2435275521 0.05421704442) 5109 15403 1
(0.1416728813 0.07237212594 0.0887862284 0.6971687644) 5110 15409 1