/*--------------------------------*- C++ -*----------------------------------*\
  =========                 |
  \\      /  F ield         | OpenFOAM: The Open Source CFD Toolbox
   \\    /   O peration     | Website:  https://openfoam.org
    \\  /    A nd           | Version:  7
     \\/     M anipulation  |
\*---------------------------------------------------------------------------*/
FoamFile
{
    version     2.0;
    format      ascii;
    class       scalarField;
    location    "60/lagrangian/coalCloud";
    object      ppT4sum;
}
// * * * * * * * * * * * * * * * * * * * * * * * * * * * * * * * * * * * * * //


2500
(
3.232117245e+13
2.418728087e+13
2.762139779e+13
2.54026776e+13
2.603129478e+13
3.874910806e+13
2.859118962e+13
2.732001774e+13
2.651572366e+13
3.100118185e+13
3.428745014e+13
3.218994735e+13
2.852074845e+13
3.760735665e+13
3.34913292e+13
2.930132781e+13
3.027110477e+13
2.766512623e+13
2.462678989e+13
3.590191258e+13
2.913094347e+13
2.529144642e+13
2.724940093e+13
2.798103754e+13
2.656083639e+13
3.339375566e+13
2.861842899e+13
2.681760766e+13
2.686543384e+13
2.296260258e+13
2.850323629e+13
3.565986403e+13
3.125985034e+13
2.762419939e+13
3.603175063e+13
3.419962028e+13
2.659924696e+13
3.09041107e+13
3.102293622e+13
3.461453958e+13
3.052181571e+13
2.867880899e+13
3.003548537e+13
3.461093076e+13
3.288142762e+13
2.78051876e+13
3.073156528e+13
2.705207151e+13
2.618443571e+13
2.932648081e+13
2.581499681e+13
2.438704938e+13
2.874673818e+13
1.649400363e+13
2.189853806e+13
1.864897316e+13
1.149045311e+13
1.268934131e+13
9.813848834e+12
8.724692298e+12
1.838110137e+13
1.214433134e+13
6.551509037e+12
1.740155684e+13
1.358722318e+13
8.070471653e+12
8.331246651e+12
1.754559238e+13
1.423638711e+13
8.531650838e+12
1.544354648e+13
7.650098485e+12
1.666507012e+13
1.37705733e+13
1.10642701e+13
7.881569721e+12
1.372026868e+13
9.736954213e+12
1.336470786e+13
1.215622317e+13
1.201695068e+13
2.471483033e+13
1.810490013e+13
3.625844787e+13
3.070744367e+13
2.870914083e+13
2.668868556e+13
1.832525982e+13
3.728264014e+13
3.748000596e+13
3.376035198e+13
2.916533806e+13
2.513539411e+13
1.644914576e+13
3.624189072e+13
3.142174698e+13
3.840834166e+13
3.78125902e+13
3.259676019e+13
2.781606689e+13
1.918524214e+13
3.887767811e+13
3.743699673e+13
1.972703731e+13
3.884924672e+13
3.860819324e+13
3.380599107e+13
3.201609656e+13
1.763337696e+13
3.946982044e+13
3.744274424e+13
2.997272116e+13
3.91587812e+13
3.034391526e+13
1.778966358e+13
3.900390976e+13
3.778246851e+13
1.745509917e+13
3.273602103e+13
2.748045024e+13
3.064940882e+13
3.688977724e+13
3.701521481e+13
3.614301771e+13
3.041541074e+13
2.154522982e+13
1.795078022e+13
3.309633677e+13
2.528916436e+13
1.588637964e+13
3.845760905e+13
3.797757342e+13
1.6460501e+13
3.943425996e+13
3.784058107e+13
3.249669194e+13
2.550216761e+13
1.893386813e+13
3.914356714e+13
3.934376665e+13
3.690171942e+13
3.15879107e+13
4.013441593e+13
3.538020061e+13
2.960615273e+13
2.602892101e+13
4.018921633e+13
2.995229691e+13
2.672586552e+13
3.998017235e+13
3.578773936e+13
2.025069025e+13
4.005501078e+13
3.372950887e+13
2.016562665e+13
1.510092841e+13
1.496333402e+13
1.382961407e+13
1.096913523e+13
1.213526464e+13
1.144691254e+13
1.097430026e+13
1.111404829e+13
7.284201744e+12
1.750869889e+13
1.754576364e+13
1.435892273e+13
1.087050956e+13
1.794509376e+13
1.767889525e+13
1.381842447e+13
1.033882304e+13
7.612941964e+12
1.817665495e+13
1.750359334e+13
7.665641713e+12
1.815498356e+13
1.817321265e+13
1.433271809e+13
1.0649123e+13
7.915837927e+12
1.85530878e+13
1.751508747e+13
1.361184429e+13
1.841448192e+13
1.326439908e+13
5.195660491e+12
1.869158438e+13
1.776641147e+13
5.407375544e+12
3.82907333e+13
3.400760707e+13
3.013334055e+13
1.737667957e+13
2.943330562e+13
2.903478793e+13
2.85438031e+13
1.890925056e+13
2.888874191e+13
1.600996702e+13
2.565435759e+13
2.991641348e+13
2.521232273e+13
1.63121247e+13
2.632317583e+13
2.586866644e+13
2.590170017e+13
3.197699609e+13
2.88552448e+13
3.002059161e+13
2.412287619e+13
1.584428762e+13
2.529086167e+13
3.057186344e+13
1.538297649e+13
2.585063883e+13
3.003176481e+13
2.128669387e+13
1.493952069e+13
2.784432796e+13
2.851292712e+13
2.6714299e+13
2.821592858e+13
2.483261756e+13
1.641023029e+13
3.21577865e+13
2.50559943e+13
2.805941699e+13
2.320995247e+13
3.406183619e+13
3.839490649e+13
3.612610348e+13
3.613203938e+13
3.477280643e+13
3.456133596e+13
2.772062091e+13
2.529786717e+13
2.572468867e+13
2.150658045e+13
3.005355151e+13
2.602761415e+13
1.583295273e+13
2.554517095e+13
2.999126589e+13
2.468732846e+13
1.824882371e+13
2.863217389e+13
2.487263544e+13
1.51912266e+13
2.979863515e+13
2.11026369e+13
1.43760423e+13
2.695419602e+13
2.287564311e+13
1.472495141e+13
1.064586881e+13
1.034866408e+13
1.424592537e+13
2.156527894e+13
2.569756212e+13
1.21541044e+13
1.27446443e+13
1.682918344e+13
2.102784461e+13
1.421978642e+13
1.338297756e+13
2.023764718e+13
1.797155681e+13
1.442240084e+13
1.098369617e+13
1.350412188e+13
1.011668585e+13
1.113474761e+13
1.090304868e+13
4.4300336e+12
8.202040454e+12
5.411420285e+12
8.483997858e+12
8.84602089e+12
1.116187826e+13
1.019100458e+13
7.638952221e+12
1.059975339e+13
5.127733929e+12
7.807145487e+12
4.498853006e+12
1.731052778e+12
9.91047155e+12
9.164783954e+12
5.780695559e+12
1.20291069e+13
6.26544413e+12
3.211486261e+13
3.682085064e+13
2.934944687e+13
3.288708378e+13
3.229080057e+13
3.36246509e+13
3.151626107e+13
3.678937797e+13
3.805046596e+13
3.122317841e+13
3.502514135e+13
3.590790925e+13
3.219688715e+13
3.256289993e+13
3.62258929e+13
3.753106136e+13
3.094057895e+13
3.400303761e+13
3.177979967e+13
3.581053726e+13
3.677126307e+13
2.945844326e+13
2.792477192e+13
3.173364643e+13
3.535463887e+13
3.55649754e+13
3.165899539e+13
2.894542271e+13
3.602159332e+13
3.480972701e+13
3.242591333e+13
3.919373666e+13
3.232174293e+13
3.636468077e+13
3.426602989e+13
3.873836283e+13
3.482855569e+13
3.630516077e+13
3.656395378e+13
3.824052973e+13
3.423037411e+13
3.088864613e+13
3.222281204e+13
3.616059055e+13
3.703860175e+13
3.524963791e+13
3.289743219e+13
3.223506191e+13
3.027541003e+13
3.132234413e+13
3.403862833e+13
3.416640256e+13
2.936675937e+13
2.970608894e+13
3.30325608e+13
3.114936847e+13
1.845717044e+13
2.257810767e+13
1.624373085e+13
1.136730866e+13
9.633303658e+12
1.349073098e+13
1.453482043e+13
1.781686204e+13
1.527563015e+13
1.360819173e+13
1.633124418e+13
1.712834447e+13
1.324765746e+13
1.394217607e+13
1.682778895e+13
1.235844926e+13
1.687837582e+13
1.290191292e+13
1.33800256e+13
1.108602459e+13
1.419105806e+13
1.362458936e+13
8.512596001e+12
1.027013626e+13
1.349868365e+13
1.345995881e+13
1.099338191e+13
6.397640066e+12
3.222338774e+13
3.389066323e+13
1.677067022e+13
2.845564024e+13
1.746968825e+13
3.548479238e+13
2.622860763e+13
2.67927441e+13
1.396246271e+13
2.991411052e+13
2.724764362e+13
3.149633465e+13
3.147101741e+13
2.618827201e+13
1.871733763e+13
3.608832503e+13
3.470974984e+13
2.715947381e+13
1.509996979e+13
3.346023128e+13
3.271246503e+13
2.522213727e+13
2.603141032e+13
1.477405274e+13
2.670536929e+13
1.575988291e+13
2.398238769e+13
2.911668876e+13
2.930305618e+13
2.866832982e+13
2.14739787e+13
1.779641319e+13
2.881708049e+13
2.88964206e+13
2.786975191e+13
2.398670852e+13
2.961750117e+13
2.290795533e+13
2.965254451e+13
2.827991889e+13
2.658042592e+13
3.196490002e+13
2.283907325e+13
2.508989422e+13
2.396056702e+13
3.382641963e+13
2.825487041e+13
3.027257761e+13
2.753492172e+13
1.549630918e+13
2.91708203e+13
2.815053348e+13
3.08565444e+13
1.516797355e+13
3.313257046e+13
1.98137417e+13
2.717149753e+13
3.509635504e+13
3.164397911e+13
2.509280796e+13
1.30531024e+13
2.604012508e+13
2.163633281e+13
1.524912318e+13
2.965000332e+13
2.411435532e+13
1.78253834e+13
1.537490339e+13
1.387858384e+13
2.88009467e+13
1.592741745e+13
1.794339709e+13
2.00119392e+13
1.367996754e+13
2.183715768e+13
1.596860731e+13
1.162597102e+13
5.286374742e+12
9.637412828e+12
1.234842469e+13
1.089446144e+13
9.017199333e+12
1.110737499e+13
9.569466535e+12
8.486000377e+12
5.480527123e+12
1.129888162e+13
1.184105303e+13
1.394037602e+13
1.1594814e+13
1.260110595e+13
1.400704614e+13
6.945639366e+12
1.125778436e+13
1.324431839e+13
7.605462698e+12
4.748113713e+12
8.920735873e+12
1.102445105e+13
1.106848943e+13
4.745787901e+12
5.473311934e+12
7.17778822e+12
1.09111494e+13
7.624031902e+12
2.742052679e+13
2.507542433e+13
1.762317297e+13
3.063261303e+13
3.412843132e+13
2.478456016e+13
1.860893859e+13
3.430188061e+13
3.333573141e+13
2.910344582e+13
2.727529301e+13
1.885823651e+13
3.27550619e+13
2.381376056e+13
1.801873687e+13
3.198097748e+13
3.135171711e+13
2.923253752e+13
2.361172652e+13
3.214743672e+13
3.372952456e+13
3.085495223e+13
1.868348263e+13
3.795910369e+13
3.600518905e+13
1.96265659e+13
3.27926078e+13
3.683469888e+13
3.458645152e+13
1.953221388e+13
3.336942335e+13
2.718890459e+13
3.180080388e+13
2.682242098e+13
1.74780736e+13
3.028553419e+13
2.621906924e+13
2.722210387e+13
2.897771594e+13
1.810706804e+13
2.732490436e+13
2.528287554e+13
3.005628904e+13
2.432167117e+13
3.374692648e+13
2.906783625e+13
2.618009339e+13
1.843640239e+13
3.00675186e+13
3.238978108e+13
2.122397099e+13
1.766191046e+13
3.268737704e+13
3.353435618e+13
1.734740332e+13
3.458745552e+13
3.22766125e+13
2.656720522e+13
1.867938858e+13
3.770572363e+13
2.950508656e+13
3.718142502e+13
2.787340668e+13
3.848831137e+13
3.305643589e+13
2.653811322e+13
1.937724657e+13
3.33620579e+13
2.782683099e+13
1.697197491e+13
3.439927636e+13
1.703174683e+13
1.443672331e+13
1.803705116e+13
1.80479948e+13
1.89043667e+13
2.759668781e+13
8.766769237e+12
1.000712225e+13
1.038046689e+13
1.291498261e+13
7.394262012e+12
1.404389361e+13
8.19147521e+12
1.043581569e+13
7.297480676e+12
1.236370466e+13
1.439717514e+13
7.271032727e+12
1.172780265e+13
7.004518816e+12
6.457292899e+12
1.177121697e+13
1.043368026e+13
8.775302685e+12
1.202808254e+13
1.367100662e+13
7.612836226e+12
1.289537623e+13
1.465970831e+13
1.205133176e+13
1.071932085e+13
8.258092976e+12
1.232375348e+13
9.428031011e+12
8.276081288e+12
5.518976824e+12
2.497377314e+13
2.344184703e+13
2.678903321e+13
3.259993762e+13
2.929973998e+13
2.934807733e+13
3.29149093e+13
2.858125282e+13
2.688925014e+13
3.377241189e+13
2.546696377e+13
2.751776989e+13
3.454058763e+13
3.561309482e+13
3.068294778e+13
3.245454426e+13
3.094895596e+13
2.501679732e+13
3.723171726e+13
3.458512917e+13
3.89060824e+13
3.598580856e+13
3.115299227e+13
3.047926257e+13
3.822341118e+13
3.200044282e+13
3.322345631e+13
3.121375076e+13
2.620661061e+13
2.876861969e+13
2.669514704e+13
2.84572876e+13
2.790301886e+13
2.384458759e+13
3.171262294e+13
2.399139996e+13
2.887731785e+13
2.932223545e+13
2.928740088e+13
2.442242107e+13
2.698149894e+13
3.180689205e+13
3.466381762e+13
3.642369101e+13
2.881685092e+13
2.675986482e+13
3.343822107e+13
2.871156875e+13
3.848938368e+13
3.57526081e+13
3.071588615e+13
3.785843038e+13
3.48456959e+13
3.960224058e+13
3.08234862e+13
2.909897805e+13
3.296845847e+13
3.308215718e+13
2.078100189e+13
1.36877706e+13
1.071760208e+13
1.287164644e+13
9.889260491e+12
1.177174753e+13
1.144136036e+13
1.123100608e+13
1.029083252e+13
9.875631435e+12
1.108700401e+13
1.270041055e+13
1.50784109e+13
1.705655184e+13
1.317650643e+13
1.408246916e+13
1.613747691e+13
1.513395456e+13
1.051239541e+13
1.589711026e+13
9.419430782e+12
1.437932951e+13
1.553854522e+13
5.928515004e+12
8.468170733e+12
2.568700305e+13
2.738504913e+13
2.513351713e+13
2.330765282e+13
2.724977943e+13
2.310927446e+13
1.509176244e+13
2.844746697e+13
2.553159791e+13
2.431738866e+13
2.439877736e+13
1.510444595e+13
3.150105965e+13
2.528908967e+13
2.779757351e+13
1.811622878e+13
2.741031725e+13
3.058612851e+13
2.462430614e+13
1.878502635e+13
2.430353531e+13
3.31692599e+13
2.719270179e+13
3.014990591e+13
3.155781102e+13
1.607084018e+13
3.505512968e+13
3.317466892e+13
2.776468194e+13
3.26509565e+13
3.238841421e+13
2.897985521e+13
1.684646437e+13
2.992479535e+13
3.158601804e+13
1.96063541e+13
3.053753246e+13
3.009310326e+13
2.384479991e+13
2.415648494e+13
1.747092924e+13
2.527453741e+13
2.976409474e+13
1.274095874e+13
2.805565456e+13
1.783029474e+13
2.711435942e+13
2.77548374e+13
3.042582862e+13
2.867363581e+13
2.858276235e+13
3.052142849e+13
2.396053658e+13
1.851341089e+13
3.428371773e+13
2.797476718e+13
2.897287088e+13
2.482859058e+13
3.281822417e+13
3.096843069e+13
2.606281294e+13
2.136022852e+13
2.282965831e+13
2.200596286e+13
3.664165025e+13
3.152996222e+13
3.447852761e+13
2.991652141e+13
1.346428427e+13
1.359617446e+13
1.793503921e+13
2.475622407e+13
2.660697735e+13
2.020847973e+13
1.509055139e+13
1.613436624e+13
1.023207523e+13
1.555003856e+13
1.398569478e+13
1.707050765e+13
1.360798579e+13
8.600137436e+12
7.400940212e+12
1.044723733e+13
4.090291849e+12
5.14103683e+12
8.223662629e+12
8.841202151e+12
5.125340792e+12
1.084745613e+13
1.05704531e+13
8.764720065e+12
7.615073158e+12
6.734174081e+12
7.987489696e+12
7.660100827e+12
1.488849742e+13
8.234199834e+12
1.189993057e+13
1.182892527e+13
9.399774243e+12
1.237272738e+13
9.16368693e+12
7.915138568e+12
2.925817484e+13
3.184819712e+13
1.711091048e+13
3.167988327e+13
2.985435197e+13
3.64004326e+13
3.266575633e+13
2.716194586e+13
1.622726988e+13
3.478160986e+13
3.291759898e+13
2.480433178e+13
1.602047891e+13
3.526544095e+13
3.858483942e+13
3.168676051e+13
1.816008214e+13
2.773836632e+13
2.456077057e+13
1.615077225e+13
3.444769417e+13
3.305875882e+13
3.394927775e+13
2.149185987e+13
3.118713962e+13
2.574290304e+13
2.970609309e+13
1.808678174e+13
3.248839399e+13
2.993412613e+13
1.799833457e+13
2.407251313e+13
2.74360984e+13
3.210806344e+13
3.148480912e+13
1.759628011e+13
3.356751053e+13
1.713098268e+13
3.659678024e+13
3.111586725e+13
2.527550454e+13
2.767142028e+13
2.671903818e+13
1.352195678e+13
3.954222398e+13
3.46041237e+13
2.913565966e+13
1.831855447e+13
3.095343837e+13
2.213199804e+13
3.495247627e+13
3.2546035e+13
2.614849955e+13
2.424502591e+13
1.797449703e+13
3.09008219e+13
1.809359992e+13
2.929956048e+13
2.639443192e+13
2.435680268e+13
2.400736858e+13
1.501681579e+13
2.716221197e+13
2.779149582e+13
1.545749894e+13
2.689138326e+13
2.453656058e+13
1.538923544e+13
2.035238111e+13
1.649689572e+13
1.561910442e+13
1.150861401e+13
1.459355159e+13
1.256002547e+13
1.18510328e+13
1.349111817e+13
1.110010766e+13
7.035994416e+12
1.525412638e+13
1.153641317e+13
1.063282077e+13
4.820230986e+12
1.125911681e+13
9.029145794e+12
7.018372702e+12
1.226503591e+13
1.179464483e+13
7.93106763e+12
1.233476405e+13
9.104925788e+12
1.174322809e+13
1.400519345e+13
1.411826652e+13
9.576721863e+12
6.774196103e+12
8.147146949e+12
9.682706205e+12
8.741421582e+12
1.235893154e+13
1.375368174e+13
6.587243573e+12
5.899700511e+12
6.662508019e+12
2.974904511e+13
3.078987128e+13
3.426995342e+13
3.043309462e+13
3.134080596e+13
3.440589776e+13
2.846965978e+13
2.285551715e+13
2.627345313e+13
2.718710224e+13
2.572339507e+13
3.468871203e+13
3.204595497e+13
2.983482777e+13
2.7559122e+13
2.66982884e+13
2.5071649e+13
3.004818302e+13
3.076295251e+13
3.553333911e+13
2.872165214e+13
2.871111975e+13
3.04107349e+13
3.011263875e+13
3.415520961e+13
3.496618016e+13
3.005463638e+13
3.436674993e+13
3.511189369e+13
2.878343897e+13
2.578235831e+13
2.967217521e+13
3.08100496e+13
3.168927481e+13
2.592817047e+13
2.855788233e+13
2.888727247e+13
2.901689759e+13
2.746385025e+13
2.880152682e+13
2.556181558e+13
3.551802004e+13
3.297946487e+13
3.618585272e+13
3.043431572e+13
3.082329645e+13
2.530385365e+13
2.434809863e+13
3.396275804e+13
2.732165721e+13
2.382688991e+13
3.164496865e+13
3.173154988e+13
2.508903963e+13
3.086803633e+13
1.925478147e+13
1.463693579e+13
1.850238322e+13
1.817844748e+13
1.286587945e+13
1.58904213e+13
1.202187136e+13
1.064040188e+13
1.324372895e+13
1.097992496e+13
1.060486621e+13
1.030933885e+13
1.12709811e+13
1.344865205e+13
1.363568712e+13
1.240225004e+13
1.101155499e+13
1.103492404e+13
1.669311471e+13
1.056990526e+13
1.110182979e+13
1.130280458e+13
1.193910876e+13
1.262336266e+13
5.55368468e+12
1.077010036e+13
1.38130484e+13
1.15538548e+13
1.484565458e+13
8.304385653e+12
1.209772316e+13
2.310833474e+13
3.197988744e+13
2.802898619e+13
2.684891026e+13
1.540018793e+13
2.86597594e+13
2.923536707e+13
3.351150434e+13
1.613465798e+13
3.274974465e+13
3.273028711e+13
1.638731111e+13
3.316676877e+13
3.153915859e+13
3.244185227e+13
1.792436546e+13
2.991121586e+13
3.358651005e+13
3.305081854e+13
3.120989208e+13
3.042749695e+13
2.522971372e+13
1.824045889e+13
3.120192754e+13
2.368400716e+13
2.269025444e+13
1.639200669e+13
2.911942957e+13
3.012447012e+13
1.954525384e+13
3.289323288e+13
2.888206036e+13
2.642126394e+13
2.050992614e+13
3.56572594e+13
3.036657277e+13
2.858529461e+13
2.950994358e+13
3.429297275e+13
1.370101711e+13
2.325113205e+13
3.499573001e+13
2.793250055e+13
2.661675013e+13
2.682200886e+13
3.530839621e+13
2.741422032e+13
3.570513119e+13
3.062208871e+13
2.409042488e+13
3.230889319e+13
3.278679377e+13
3.189561103e+13
2.660884816e+13
1.603463623e+13
2.741594503e+13
2.340857095e+13
1.577454562e+13
3.334084406e+13
3.006257345e+13
3.114030959e+13
2.074084565e+13
1.664447386e+13
3.622731794e+13
2.942607251e+13
1.941096454e+13
3.278236827e+13
2.831787489e+13
2.034650586e+13
1.467852007e+13
1.504039437e+13
1.525359483e+13
1.5226087e+13
1.729810119e+13
1.779882826e+13
1.377775135e+13
1.343212289e+13
1.089123793e+13
4.655703858e+12
1.074422347e+13
1.085975238e+13
1.348452985e+13
5.473685429e+12
8.309968808e+12
1.113017262e+13
1.100689766e+13
1.372481203e+13
1.369818799e+13
5.292945309e+12
1.604242345e+13
1.069841023e+13
1.396844538e+13
8.223081976e+12
1.079325812e+13
7.346891169e+12
8.214890246e+12
4.945639832e+12
1.452730333e+13
1.22688062e+13
7.365058707e+12
1.505259017e+13
8.708623022e+12
1.48670597e+13
1.132385134e+13
7.972765091e+12
2.973569986e+13
3.441454609e+13
3.030582077e+13
2.076548479e+13
3.841110767e+13
3.096552055e+13
2.038127195e+13
2.990978218e+13
2.672183966e+13
3.232371711e+13
3.46572124e+13
3.340447907e+13
2.864838518e+13
1.990694107e+13
3.424665006e+13
2.955574869e+13
1.958458316e+13
3.057423559e+13
3.008948574e+13
2.934400709e+13
2.843508028e+13
1.895377949e+13
3.264586972e+13
3.262020588e+13
2.914020349e+13
2.467861976e+13
2.678701239e+13
2.781644735e+13
3.079771863e+13
2.417685039e+13
1.883078974e+13
2.517454024e+13
1.840525084e+13
3.09032449e+13
2.794679095e+13
2.751256961e+13
2.602423238e+13
2.638354043e+13
1.793334704e+13
3.51377766e+13
2.948247755e+13
2.017555913e+13
3.200382848e+13
2.821972153e+13
2.988367499e+13
2.545237902e+13
1.970576407e+13
2.869860207e+13
3.077653667e+13
2.318961066e+13
1.923692826e+13
3.455493819e+13
3.438194992e+13
2.833005638e+13
3.324528737e+13
3.245574573e+13
3.103744485e+13
2.235554097e+13
3.297908365e+13
3.27798207e+13
1.83000953e+13
2.886428141e+13
2.893324125e+13
2.200033401e+13
1.815795099e+13
3.12373685e+13
2.647545822e+13
2.739176107e+13
2.46164215e+13
2.322601618e+13
1.800764142e+13
1.916125475e+13
1.936200051e+13
2.228446732e+13
1.876456406e+13
1.62431934e+13
1.371300856e+13
1.10091144e+13
8.164439527e+12
1.482304282e+13
1.682434379e+13
7.920251275e+12
9.322470422e+12
1.448557297e+13
8.395151324e+12
7.679476557e+12
1.449555517e+13
1.176062396e+13
1.062267633e+13
1.152264563e+13
8.605078176e+12
7.592996528e+12
9.181638495e+12
1.163541523e+13
1.082469184e+13
7.415791043e+12
1.402397847e+13
1.019922663e+13
8.469435027e+12
1.157555816e+13
8.211493854e+12
9.824843424e+12
7.691454833e+12
7.146742304e+12
1.653075788e+13
1.204349593e+13
7.280693256e+12
3.35320817e+12
5.945586249e+12
8.761526511e+11
7.614983773e+11
3.933988046e+11
5.558921937e+11
5.326260922e+11
7.155337231e+11
4.022261986e+11
4.196221202e+11
4.017102443e+11
6.298544317e+11
7.047742072e+11
8.354371267e+11
7.585110396e+11
7.636757964e+11
7.75503158e+11
6.711568646e+11
3.324063526e+11
3.556904355e+11
6.008797743e+11
4.939767591e+11
3.571814214e+11
6.062530598e+11
5.97558555e+11
5.873912256e+11
2.045122683e+11
1.22880171e+11
1.362756272e+11
1.221968974e+11
1.190324613e+11
1.067332325e+11
1.328207923e+11
1.589481824e+11
1.136597627e+11
1.317726611e+11
1.196927663e+11
9.49410348e+10
1.161284226e+11
2.056049657e+11
1.245892509e+11
1.190751023e+11
1.801275708e+11
1.378188027e+11
1.107348053e+11
1.012946307e+11
1.019236808e+11
1.185893983e+11
1.100711218e+11
1.166479781e+11
1.171305686e+11
1.06281194e+11
1.351420286e+11
1.116447785e+11
1.241053922e+11
1.234317102e+11
1.360350238e+11
1.131451022e+11
1.340150673e+11
1.240240618e+11
5.126899382e+11
6.107678013e+11
2.414391957e+12
6.261605793e+11
6.719970621e+11
6.971287449e+11
6.858773709e+11
5.108918297e+12
7.54432361e+11
3.043342218e+12
7.289188862e+11
3.222776887e+11
6.313154489e+11
4.416623849e+11
6.066428934e+11
5.298601778e+11
5.749031897e+11
3.700595097e+11
3.133683988e+11
5.255055761e+11
1.444135906e+11
6.437253766e+11
4.76351758e+11
1.610827493e+11
3.201293303e+11
6.208814184e+11
8.044880751e+11
7.81031561e+11
4.839758941e+11
5.187810985e+11
9.103874322e+11
6.378681958e+11
2.398200428e+11
1.067865422e+12
2.783270591e+11
7.708568652e+11
4.330405738e+11
1.270786547e+11
1.201187775e+11
1.194299087e+11
1.056510942e+11
1.196542348e+11
7.143508757e+10
1.233293724e+11
1.377854162e+11
1.473658049e+11
2.689856339e+11
2.444011485e+11
1.430403055e+11
1.253979312e+11
2.230521694e+11
1.332229141e+11
9.733613371e+10
1.233205727e+11
1.346469432e+11
8.254488431e+10
1.180556843e+11
1.359207334e+11
1.072278656e+11
7.846823836e+10
1.430475275e+11
1.13021872e+11
1.348931131e+11
1.412455644e+11
1.09444251e+11
6.258069772e+10
1.216712901e+11
7.027878164e+10
1.164450245e+11
1.050169373e+11
1.298466166e+11
6.235759803e+10
8.787642469e+10
1.031506678e+11
1.123607353e+11
1.277589986e+11
5.117014598e+11
3.65489111e+12
2.993329928e+12
8.577174799e+11
7.465305328e+11
5.888945141e+11
2.707212721e+12
1.256902466e+12
6.693447263e+11
6.430658138e+11
8.489553429e+11
8.095637836e+11
3.15604357e+12
2.284223119e+11
4.683321931e+11
3.321456765e+12
3.616481422e+12
6.96915376e+11
8.775584544e+11
2.436377153e+12
5.081328412e+11
4.712708398e+12
6.363066882e+11
3.010674581e+11
5.289583428e+11
6.928333966e+11
1.743374439e+11
1.663167378e+11
2.786351774e+11
2.100652453e+11
4.535216164e+11
2.268870806e+11
2.51757572e+11
1.475854422e+11
5.772371615e+11
2.194816274e+11
2.175387654e+11
3.978371316e+11
1.276630943e+11
1.475372692e+11
1.055123724e+11
1.35065991e+11
1.255021424e+11
1.384994506e+11
1.195529037e+11
8.76753036e+10
1.501799407e+11
1.319466527e+11
1.321744349e+11
1.133263634e+11
1.343996501e+11
1.539992428e+11
1.349717787e+11
1.116422717e+11
7.898932544e+10
1.402088367e+11
7.227978042e+10
1.285697118e+11
1.287781463e+11
1.107127544e+11
1.162133916e+11
1.363611574e+11
1.292775623e+11
1.358045441e+11
1.435052975e+11
1.187086174e+11
1.139235418e+11
1.306341191e+11
7.04375017e+10
1.016683856e+11
1.175915949e+11
1.094722402e+11
1.114257121e+11
1.010510877e+11
7.79399609e+10
1.034482159e+11
9.586104155e+10
1.265797184e+11
1.142126693e+11
1.185264587e+11
1.089494532e+11
6.241035707e+10
5.010928084e+11
7.694000593e+11
3.942828033e+12
6.805512889e+12
3.658872278e+11
6.513790967e+11
5.376477939e+12
6.62914013e+11
4.907344384e+11
7.517266289e+12
3.43219458e+12
3.157210202e+11
5.277785176e+11
5.884981193e+11
3.377645743e+11
6.023629279e+11
7.317331176e+11
6.19616609e+11
4.722544769e+11
4.826493268e+11
2.776143494e+11
4.566688773e+11
3.454383021e+11
6.415996419e+11
4.705887304e+11
4.527739366e+11
4.117723982e+11
4.560717293e+11
6.141027344e+11
5.036089485e+11
1.722133807e+11
1.405803852e+11
1.603411827e+11
1.23123989e+11
1.425690678e+11
1.599487759e+11
1.247546915e+11
1.581849209e+11
1.128987375e+11
1.330709686e+11
1.049422642e+11
1.061154551e+11
1.929315262e+11
1.212501649e+11
1.349060688e+11
1.143218804e+11
1.00359301e+11
1.193999971e+11
1.16848531e+11
1.499873537e+11
1.502528818e+11
1.02063922e+11
1.044575944e+11
1.10935978e+11
1.396715743e+11
1.312852828e+11
1.329488566e+11
1.092376552e+11
1.21453319e+11
1.094667178e+11
1.148910735e+11
8.36048328e+11
4.578237228e+11
6.795819505e+11
4.704605947e+11
1.332137707e+12
8.896405384e+11
3.889295119e+11
2.253020499e+11
5.436538247e+11
4.795589323e+11
4.922811438e+12
3.568466304e+12
6.316100729e+11
3.044618893e+12
6.495874423e+11
2.23932762e+11
3.620931308e+11
2.552811322e+11
3.477375415e+11
9.084417681e+10
1.320467894e+12
3.830600231e+11
3.998125839e+11
8.723046097e+11
3.128635167e+11
2.374772337e+11
5.757388659e+11
2.749259184e+11
6.495666288e+11
4.431736823e+11
1.866502279e+11
1.635628674e+11
6.853012077e+11
2.041019988e+11
1.924859486e+11
1.846825202e+11
1.469390328e+11
1.297516315e+11
1.225639394e+11
8.810230546e+10
1.991581382e+11
1.38024411e+11
1.308739791e+11
1.111944567e+11
9.427085526e+10
1.227049115e+11
2.141845317e+11
1.099830134e+11
7.832660545e+10
1.228716754e+11
2.311916858e+11
1.63370149e+11
2.903437278e+11
1.257279233e+11
1.368290426e+11
1.229178472e+11
1.213466329e+11
1.829786755e+11
8.695753985e+10
1.101784304e+11
7.117216383e+10
1.245963315e+11
1.015742875e+11
1.282508353e+11
1.217827326e+11
8.721500927e+10
1.105603812e+11
1.038564342e+11
1.050985417e+11
8.070878678e+10
1.133124176e+11
8.751429593e+10
9.544411325e+10
1.12780443e+11
1.099936713e+11
1.101574777e+11
5.776887017e+11
4.729518311e+12
4.349044708e+11
3.005795163e+12
2.834844491e+12
3.234664496e+12
9.345730057e+11
3.853421938e+12
3.365398422e+12
1.294489548e+12
4.962746057e+11
7.853409203e+11
3.578692385e+12
7.718436467e+11
2.759626001e+11
4.232597499e+11
2.245260067e+11
2.404711348e+11
4.97028133e+11
2.674075108e+11
5.053364547e+11
2.015919178e+11
1.831269079e+11
8.039722495e+11
2.298822913e+11
3.797191792e+11
2.233120618e+11
2.770524502e+11
1.217908335e+11
4.533595537e+11
7.387828372e+11
3.931468508e+11
5.490757399e+11
3.138497441e+11
5.685194266e+11
4.130269437e+11
1.579889284e+11
2.49103179e+11
1.839474401e+11
1.706232341e+11
1.047672411e+11
1.835941921e+11
1.203691687e+11
1.321469749e+11
1.276453269e+11
1.073318466e+11
6.267977438e+10
1.33974598e+11
1.299785417e+11
1.324577433e+11
1.366355879e+11
1.280061522e+11
2.892304378e+11
9.031475015e+10
7.426559509e+10
1.103475212e+11
1.33227459e+11
3.069180689e+11
1.214280743e+11
1.296947083e+11
1.184184984e+11
1.096867542e+11
7.027771386e+10
1.126690618e+11
1.284468858e+11
1.087383652e+11
9.372403487e+10
1.019992463e+11
1.11120898e+11
1.267634968e+11
1.058442893e+11
1.21612367e+11
1.062557867e+11
1.467666002e+11
1.207062804e+11
7.811168133e+10
1.169965185e+11
7.029957382e+10
5.403916884e+12
2.812067135e+12
2.6119444e+12
4.344242209e+11
4.41967952e+11
3.34506903e+11
7.085027813e+12
2.759938169e+12
5.073341194e+11
5.114445661e+11
7.089169718e+11
5.484939717e+11
5.199351501e+11
5.482565962e+11
5.798093526e+11
3.801420012e+11
7.394047187e+11
3.381895895e+11
2.132183623e+11
6.104278176e+11
5.731554558e+11
3.170133326e+11
2.408033813e+11
5.558565951e+11
3.44125737e+11
3.910414824e+11
8.238955839e+11
7.620677716e+11
2.711254351e+11
3.488288826e+11
5.538470752e+11
2.068769298e+11
1.305937275e+11
1.340332574e+11
1.248204692e+11
1.754853715e+11
1.813127397e+11
1.415809583e+11
1.214793702e+11
1.044184815e+11
1.155314913e+11
2.298375373e+11
1.271770072e+11
1.351225443e+11
1.483405809e+11
1.281131605e+11
1.244242979e+11
1.264720242e+11
1.706084215e+11
9.751955035e+10
1.199628081e+11
1.171499267e+11
1.08687499e+11
1.043660701e+11
1.013479026e+11
1.167599987e+11
1.337357244e+11
1.182641679e+11
9.394922923e+10
1.09092775e+11
1.229532604e+11
1.115423834e+11
1.261005052e+11
1.182196565e+11
6.006229675e+11
4.886513618e+11
9.056757373e+11
3.012372581e+12
4.966698846e+11
1.169677471e+12
5.316732722e+12
6.284049363e+11
8.955397186e+11
5.84370964e+12
1.11109402e+12
1.089518428e+12
6.555270835e+11
8.727391818e+11
1.37735055e+12
3.777464937e+11
3.738422435e+12
9.632710922e+11
2.940929203e+12
5.911668613e+12
1.465928664e+11
4.240616978e+11
1.537200197e+11
2.662476294e+11
1.535169253e+11
1.979044244e+11
1.652683748e+11
2.181641443e+11
3.579489813e+11
3.755704058e+11
7.158256616e+11
2.586586121e+11
1.897935346e+11
3.997182481e+11
2.69630021e+11
3.889972073e+11
1.26049178e+11
1.441581248e+11
1.106942806e+11
1.111931853e+11
1.180769814e+11
1.328323866e+11
1.314895606e+11
1.387434689e+11
1.493440632e+11
1.341303275e+11
1.599999967e+11
1.832572922e+11
1.414373289e+11
1.360590992e+11
1.238904203e+11
8.889554828e+10
1.084959272e+11
1.425712666e+11
1.060758213e+11
1.194938175e+11
7.806101671e+10
1.102340254e+11
1.110271388e+11
1.167119015e+11
1.115676193e+11
1.043093532e+11
1.186144389e+11
8.678824228e+10
1.346919715e+11
1.176381335e+11
8.609835622e+10
1.296307191e+11
1.182670096e+11
1.208792776e+11
8.599077944e+10
7.090924674e+10
1.223041731e+11
6.265709447e+10
1.03120478e+11
1.188482262e+11
1.230862417e+11
6.954004516e+11
3.413307323e+12
6.96560614e+11
2.707792304e+12
6.027113225e+11
2.964813511e+12
5.680586266e+11
3.566711756e+12
7.077774152e+11
6.356259619e+12
7.985351348e+11
5.51742885e+11
1.189901296e+12
5.9868014e+11
7.49188998e+11
3.092415268e+12
4.26225552e+11
5.633033371e+12
5.289419052e+12
5.871728176e+11
2.756208898e+11
4.727762483e+11
2.060285437e+11
4.871313207e+11
1.350244447e+11
3.86339758e+11
3.484752272e+11
2.617758684e+11
3.546308438e+11
2.756416199e+11
2.653581241e+11
2.758714922e+11
2.307635228e+11
5.758429073e+11
4.621799424e+11
2.870158077e+11
4.910822649e+11
2.995516397e+11
5.443787151e+11
6.582159438e+11
1.9004981e+11
1.39781349e+11
1.194994329e+11
1.301977736e+11
2.282791318e+11
1.29786348e+11
1.280583347e+11
2.252596352e+11
1.225870498e+11
2.388512088e+11
1.724477879e+11
1.184052833e+11
1.183996598e+11
1.39286825e+11
1.250167511e+11
1.509162243e+11
1.376843517e+11
1.36611799e+11
1.044871919e+11
7.996444782e+10
1.24290303e+11
1.337200384e+11
9.057523273e+10
1.039197156e+11
9.520275938e+10
1.13638625e+11
7.834689781e+10
1.250080278e+11
1.10338686e+11
8.361791355e+10
1.102304913e+11
1.234006476e+11
9.725925124e+10
1.276054108e+11
8.418837926e+10
1.050008466e+11
9.593383978e+10
9.690044412e+10
1.135758277e+11
8.053711576e+10
1.089234313e+11
1.082912189e+11
4.341842165e+11
3.041348828e+12
3.312328137e+12
5.362375041e+11
6.305023193e+11
7.16259006e+11
4.329107952e+11
7.898065125e+11
1.043181755e+12
3.346336434e+12
7.364646077e+11
6.978875705e+11
4.629694873e+11
6.319758558e+11