/*--------------------------------*- C++ -*----------------------------------*\
  =========                 |
  \\      /  F ield         | OpenFOAM: The Open Source CFD Toolbox
   \\    /   O peration     | Website:  https://openfoam.org
    \\  /    A nd           | Version:  7
     \\/     M anipulation  |
\*---------------------------------------------------------------------------*/
FoamFile
{
    version     2.0;
    format      ascii;
    class       scalarField;
    location    "60/lagrangian/coalCloud";
    object      T;
}
// * * * * * * * * * * * * * * * * * * * * * * * * * * * * * * * * * * * * * //


2500
(
1358.089005
1357.269721
1306.706954
1310.100161
1310.538266
1380.806703
1368.097176
1326.028675
1295.690536
1307.050599
1367.4739
1344.890705
1332.645756
1369.862296
1355.007931
1341.55167
1322.411059
1320.331659
1316.082169
1350.447084
1338.104044
1326.681898
1317.042237
1269.23717
1305.211536
1348.730217
1330.33069
1309.564013
1275.534305
1224.189017
1243.922883
1302.17739
1280.023153
1259.765936
1295.638944
1286.704055
1244.044663
1254.537042
1249.888644
1280.018925
1270.648177
1268.044186
1256.792563
1282.312471
1281.288755
1275.658482
1277.813627
1225.347224
1241.492531
1275.084271
1247.280072
1244.951688
1248.93587
791.8768617
843.8874897
791.1405195
649.9453205
698.1388563
520.4074297
464.1079526
647.370448
557.5305331
469.0538857
641.2954276
587.8745252
477.4301114
464.4392474
607.7354566
572.0842264
503.0417327
619.5134433
439.3026979
616.5197397
593.3875901
567.5684704
497.0962602
590.2484167
515.1080726
567.8067459
534.6934496
508.6225807
1289.838777
1297.172293
1353.108466
1352.390444
1332.24392
1309.683664
1303.521631
1365.005374
1364.842518
1354.748285
1336.927464
1297.704624
1314.136221
1350.755524
1329.036406
1378.249891
1370.378423
1342.375736
1320.907388
1313.810099
1382.097528
1366.678009
1320.43164
1382.848275
1377.33933
1358.237746
1336.489694
1331.15274
1388.681669
1365.028359
1345.380839
1385.835006
1350.976541
1336.983899
1386.191517
1372.557267
1335.203518
1275.859305
1249.477544
1252.828878
1287.099762
1296.905184
1274.872086
1261.127591
1223.972935
1217.187387
1274.489479
1271.143225
1230.770393
1305.088419
1296.740977
1235.816812
1300.969507
1294.597496
1267.70911
1229.303593
1242.460739
1302.128819
1300.365126
1296.860987
1259.664802
1309.643195
1286.559469
1268.331122
1253.975839
1308.393643
1284.438302
1252.276677
1320.070309
1303.686768
1245.356632
1312.077766
1285.131308
1232.998343
717.5257766
758.1942725
529.4375853
539.6618585
516.6825994
573.657889
530.1572683
521.4938669
463.9313892
595.6873058
629.7969961
608.7629595
597.1414891
605.7725644
575.3750995
549.3274623
504.262159
483.6378555
604.3465904
632.4699843
616.8741666
597.176319
641.2450192
598.8203022
556.5625169
496.8248463
616.3496492
622.7202923
546.4394167
681.5541279
585.5967921
453.6518644
598.0913432
631.3931129
466.9096002
1380.454587
1366.871247
1353.869747
1299.622513
1359.829388
1350.743374
1335.927971
1245.28199
1342.954964
1278.42664
1321.663012
1310.18928
1303.162645
1278.206036
1326.064008
1339.581258
1313.253291
1294.622259
1324.617653
1322.281932
1308.763976
1304.722458
1301.57833
1325.934314
1296.869089
1312.725034
1295.887972
1280.3498
1252.763974
1273.68574
1273.385246
1311.576686
1300.491182
1250.447098
1273.269192
1316.896981
1322.413108
1321.159195
1298.379345
1301.263897
1309.165531
1266.191166
1297.690156
1273.437544
1296.013935
957.4274459
1248.338176
1251.233331
1221.342934
1261.466747
1253.579338
1228.65835
1267.917502
1278.113313
1226.866468
1234.789568
1244.797647
1237.35792
1200.428849
1247.879352
1195.969235
1151.605032
1236.502285
1201.655258
1193.119756
778.6112241
679.8067005
758.6984977
782.8749859
859.7943645
651.7444121
546.2004876
826.025846
847.3513043
689.427292
756.4418365
853.1831851
604.3037496
618.9115371
587.4982939
530.8877639
525.9181766
538.8752927
565.7481788
425.4410621
527.8784017
488.9799028
467.5885649
486.0806528
539.9856452
552.008183
441.6162872
575.7503697
421.7162473
517.8371375
468.5844546
342.4952966
525.1770832
474.1459822
452.3330289
559.9538656
441.1931699
1340.196715
1358.114312
1356.167341
1385.97849
1342.840724
1357.109625
1344.779056
1358.44509
1370.263346
1329.091199
1341.451307
1349.881303
1372.94632
1344.442388
1349.694399
1359.824065
1328.317637
1357.340132
1335.125666
1344.001096
1350.419378
1343.718395
1319.785124
1332.813487
1338.525515
1339.782312
1331.554015
1311.622756
1288.443675
1302.56756
1269.945038
1308.440358
1262.336325
1280.786374
1277.037303
1316.463325
1267.685037
1270.289518
1294.116723
1290.833931
1309.606668
1252.407818
1255.547331
1276.71586
1291.348944
1270.234112
1282.144102
1264.556842
1260.789077
1270.893686
1272.60522
1272.741039
1246.700832
1224.336005
1261.412935
1271.495882
805.9058928
801.2973219
779.1846109
515.8369134
579.3227045
567.4737835
618.0548648
592.3538286
568.1597898
559.5289332
606.700679
609.4846787
604.3729809
575.0758422
582.0023057
591.7420617
575.5344678
571.328906
636.1560867
526.8434755
579.7283127
532.9032494
475.1359231
542.2187671
573.0247004
585.8647085
561.3403222
420.675252
1360.406811
1366.559805
1307.52559
1337.485768
1267.638719
1377.879177
1345.941283
1322.734787
1261.612345
1324.32149
1297.917301
1346.875087
1341.529886
1309.547127
1277.888353
1353.271952
1339.01093
1320.199807
1296.001774
1357.307874
1347.040034
1327.1334
1286.927841
1292.964532
1349.81395
1274.416364
1302.082731
1289.078897
1344.858949
1335.529144
1291.939131
1299.953451
1338.980032
1335.753816
1302.339022
1308.917131
1275.612398
1241.524881
1286.918645
1285.830119
1259.46275
1293.88991
1242.943632
1254.169404
1228.278141
1299.045099
1277.89555
1269.905217
1259.277
1208.759202
1291.296543
1246.797153
1249.466759
1207.498401
1281.144545
1205.872131
1233.589888
1287.636393
1273.536258
1268.845315
1190.5972
1265.575485
1226.444338
1214.682261
1245.453396
1242.779159
1215.437852
737.7483517
790.0592145
945.6499011
926.369168
762.3801401
792.6020486
696.8038955
797.0518284
766.6993891
558.4771512
435.363035
470.7378065
546.953335
541.9545433
530.6823031
574.2804125
563.7429524
523.5859332
459.3169785
531.559812
514.1615621
546.2847092
568.2338524
542.1557352
506.1404828
469.8425932
541.2628134
593.5682587
514.7072473
457.6432489
475.0790161
531.1099024
549.7527589
468.1482877
400.4346412
466.746421
522.3496055
426.8186571
1331.739507
1294.14152
1292.484274
1354.336652
1331.510178
1321.945813
1308.865953
1363.264756
1351.373922
1315.704
1319.463209
1313.974731
1346.81201
1310.42204
1298.532395
1373.006324
1365.026675
1318.31134
1303.80451
1354.665201
1360.220189
1325.766038
1306.764971
1373.403423
1351.588371
1321.852332
1381.369626
1361.636725
1337.941161
1322.733433
1385.380829
1324.166967
1350.219076
1323.13993
1299.098361
1270.591459
1232.85568
1254.588363
1260.346096
1231.783541
1290.322514
1250.683047
1250.862606
1233.343471
1308.217484
1260.01296
1245.714892
1242.833572
1285.564299
1274.1056
1145.669797
1232.416223
1284.099847
1278.28136
1225.323451
1294.511018
1266.445607
1215.437785
1241.037692
1326.57441
1295.602068
1295.491066
1261.790911
1305.63481
1290.4653
1256.310632
1250.989475
1310.299169
1283.493103
1246.265363
1310.93987
1232.869772
698.4613413
733.7635984
756.1513869
701.1921768
891.776592
497.4704959
524.9203987
514.5283177
547.5888925
500.4768876
607.1402566
538.4209751
458.0713631
478.3637612
527.6854361
567.6056137
395.3249889
562.2350325
399.3321402
451.9957563
543.4812724
456.6352247
467.4294542
552.4450508
585.2446098
575.5391737
540.9587062
572.6873481
550.6151467
530.6070654
494.348909
572.2221163
526.5203649
463.0573808
462.9310381
1318.627741
1302.483694
1303.911679
1342.706231
1333.61705
1304.142779
1343.698222
1330.592982
1310.294354
1355.670838
1327.385078
1314.533262
1360.712936
1342.951094
1323.984501
1341.498946
1322.092089
1316.656805
1358.362809
1334.927856
1377.156634
1350.035803
1330.224958
1319.360872
1370.419545
1343.259882
1386.954682
1343.974076
1318.169246
1311.168003
1255.273554
1263.211649
1242.928221
1225.954286
1242.89818
1255.50992
1222.045028
1276.140291
1270.570406
1222.399759
1220.095862
1260.782298
1287.747676
1290.571197
1267.004635
1256.106437
1274.596813
1258.779738
1307.238195
1274.625367
1260.068505
1286.668591
1269.781966
1332.561741
1277.410058
1244.218271
1298.217899
1274.013793
803.3986266
558.8411
546.495618
534.1302879
484.560563
504.9275321
562.9801868
515.329927
531.5023011
467.3966714
562.2036864
568.0353123
600.2235628
643.7053067
542.1790902
571.7252119
612.1673201
638.0930913
541.8858734
660.5114572
494.3402677
566.4380569
620.4041482
464.5936913
481.2752472
1310.494508
1299.977585
1279.670917
1279.761425
1322.34492
1244.849136
1264.460108
1315.481836
1305.559915
1272.020905
1270.815842
1264.468911
1337.252354
1329.394616
1302.125299
1301.656795
1333.055516
1325.087292
1315.859033
1309.130778
1331.484662
1331.21489
1315.379373
1353.181006
1315.51051
1277.807602
1375.022769
1332.20732
1303.468357
1381.666916
1377.707302
1338.919035
1291.975057
1390.465495
1366.533693
1325.750013
1265.494438
1250.794868
1248.154654
1220.955259
1228.062825
1247.200868
1237.139749
1197.916203
1251.873692
1218.470428
1254.191547
1260.217032
1239.034853
1273.430464
1254.953765
1250.427187
1251.841268
1238.994549
1317.467399
1290.404904
1276.793569
1240.816121
1301.147713
1294.328446
1267.976533
1236.042324
1256.703821
1276.382637
1313.452891
1300.630389
1305.521079
1256.774617
687.7108545
687.0891816
717.6852508
847.9910366
900.7751045
797.6600316
765.7464744
802.1306291
662.4127739
648.8618095
648.8581014
770.1589327
646.5021585
478.5507748
449.4007756
499.1498468
437.1802929
463.1604318
476.3439267
520.2629628
424.0399608
572.5050483
555.4933449
492.5814165
505.7439769
425.7244179
493.8607816
507.167312
632.5372915
480.1851175
576.4680824
520.0945555
501.5751309
570.0154783
506.4893732
525.2818357
1381.917618
1319.709332
1328.463639
1368.891993
1347.197827
1383.563328
1379.096457
1284.404107
1314.836127
1365.924393
1348.777843
1300.575029
1277.602362
1371.151642
1371.071495
1315.519368
1303.411441
1353.53339
1316.409943
1309.661059
1359.669152
1346.025981
1310.937652
1312.216157
1333.30112
1328.868476
1312.472732
1301.03967
1336.368037
1313.355205
1298.378611
1345.99198
1345.994373
1330.857221
1286.579075
1291.03204
1286.001162
1232.835917
1321.768176
1293.626797
1244.15279
1287.901928
1264.632581
1194.704655
1319.494358
1306.69786
1253.468316
1210.799391
1277.019684
1222.11914
1291.827509
1298.236109
1266.819051
1246.98222
1232.835955
1289.052505
1206.894241
1273.131446
1229.747605
1244.631349
1220.895051
1193.295354
1263.898356
1263.765583
1199.451941
1256.403203
1200.263551
1203.721372
783.5028389
780.3070715
774.8938535
689.2712162
592.0405636
551.3172254
593.1140205
627.5998371
618.1179451
560.2402879
577.7723431
546.3192456
493.2308182
400.5071149
547.5528079
496.4559569
453.3951924
527.1556913
575.3022837
533.5257741
545.5586331
535.1471452
503.4637717
587.0475541
585.4034711
471.9819395
481.0612137
516.7025982
497.1395352
515.6420457
576.305188
574.3933957
501.6271114
489.5991379
483.1176814
1308.498223
1324.486487
1331.332518
1320.121181
1332.61685
1334.050218
1333.793158
1314.493131
1343.225078
1313.070883
1331.701452
1338.629472
1341.506939
1346.009201
1330.078463
1337.980681
1322.342287
1347.751511
1355.366649
1353.794519
1314.507733
1370.601751
1324.544431
1351.523599
1363.523232
1375.768872
1243.987878
1262.534642
1253.34362
1277.582034
1252.000356
1238.909531
1267.728903
1266.884935
1266.191209
1264.979071
1261.714099
1263.239295
1254.587239
1269.917196
1255.374761
1273.870208
1270.911121
1294.60087
1248.279267
1291.899775
1241.974894
1255.699033
1279.441733
1253.953603
1240.773669
1303.417871
1305.158857
1277.292835
1294.667546
792.862741
739.9294815
791.9835633
700.5905231
522.9076423
572.8815284
508.8228292
530.9138942
546.6194349
558.6876985
511.628559
497.3089628
531.3256243
579.2772318
550.7980981
559.6477749
551.2560514
540.9397303
602.5110111
550.2744147
520.0356829
566.0117994
543.254261
575.1420649
485.2082548
543.5675522
589.2156412
549.6086945
575.980927
479.1897844
580.2754177
1314.87926
1337.341504
1324.11394
1287.599038
1295.41167
1342.657571
1344.544477
1327.258685
1270.419396
1348.134411
1298.162707
1273.862882
1354.776353
1336.045491
1297.773342
1295.544545
1356.107949
1357.994298
1352.646215
1334.495345
1354.018951
1301.164174
1300.873622
1366.473569
1318.902412
1328.579779
1312.619214
1377.67325
1312.035649
1320.706605
1385.578796
1348.305988
1341.073282
1334.626917
1382.275528
1353.364124
1273.511906
1263.651384
1264.850963
1200.017553
1241.492832
1271.318975
1248.063871
1242.335901
1247.573484
1280.224808
1258.31285
1278.809428
1267.199698
1226.870924
1279.201112
1288.341176
1265.587738
1249.38644
1196.42451
1222.298714
1235.705641
1227.006039
1294.53616
1298.257874
1317.222131
1238.412447
1223.046073
1295.43492
1276.055239
1252.946888
1296.839561
1284.543441
1263.709111
675.8782976
894.9508386
690.6938037
679.7198199
827.3579773
785.7672754
554.3336816
532.2000169
532.1798198
419.3583865
524.7044151
546.3373048
585.567325
542.158937
451.6578353
576.103912
551.869103
591.2806682
517.3290236
429.6891311
561.1798962
498.4161224
559.5021762
453.6182692
568.4050363
494.8557017
546.8876991
531.3267642
516.2239799
555.370485
478.2486185
590.8274015
448.4963513
598.8478047
584.6270493
527.7282583
1387.796559
1368.322783
1350.027144
1338.785375
1374.858206
1360.56509
1331.464182
1383.991344
1340.630338
1374.129348
1365.720094
1330.042374
1330.199394
1323.819707
1363.659021
1346.263039
1320.431595
1359.048463
1352.175217
1319.664696
1330.68956
1313.426157
1329.247701
1333.689807
1323.228065
1319.680039
1324.458905
1332.906559
1293.433139
1315.493051
1284.007097
1304.333659
1307.447441
1310.449744
1307.877816
1303.553693
1309.104124
1308.900921
1299.647274
1304.882319
1280.781023
1261.525105
1311.827946
1276.413498
1264.412749
1271.974655
1252.035381
1282.982099
1277.225371
1255.714705
1247.236317
1301.828946
1264.672212
1270.648323
1291.926246
1271.147536
1254.375091
1230.630912
1268.249914
1263.418439
1225.884039
1253.452865
1273.84129
1230.037805
1223.763704
1262.600633
1237.329984
1258.176067
1216.96822
1224.111464
1233.900151
795.9650113
824.3994225
837.1431054
788.196611
741.6870146
574.0025892
546.9258311
519.9452951
605.4907433
613.6715512
534.993875
573.1437058
617.7364126
558.365623
544.5837559
575.7496979
558.7138388
474.4089068
608.0985802
524.2913381
497.8399122
483.6815108
533.8281821
551.8409049
506.2719886
542.4785126
549.7211544
523.2986755
517.6634628
477.2395833
582.6116003
489.7371689
544.377091
573.3439432
493.1049472
458.9715419
352.9049797
396.5177451
308.4258592
304.3858187
316.0118587
307.4237648
322.2963269
362.8148543
302.4923
302.361758
300.3017388
316.1316921
307.9184771
322.7562906
310.9134991
305.0922454
314.1528626
309.7182494
306.2228009
299.8958134
319.8885363
310.0187953
301.1348049
306.6932172
303.6034444
312.6683616
298.1881068
298.8141297
296.9769513
298.2308803
299.2915553
297.4056882
298.1832301
297.495526
296.8416971
308.3864065
300.4932867
297.0808336
298.1846339
298.1451209
298.8000329
300.4691161
298.7423471
301.1424628
296.8258897
296.954621
296.9643275
297.2326337
296.6573588
296.5615461
296.6504941
298.3419707
299.9102969
296.8740701
305.7300086
298.0628036
297.9152875
297.0377372
296.923388
297.1786296
332.3141553
300.1653678
358.8831809
315.6148398
303.8372862
330.4220635
313.8879415
425.4246139
325.5088991
362.276712
334.6857142
299.8266616
359.4002662
299.8653939
323.4586208
337.9390523
300.6639699
299.547552
298.0527466
304.6399577
298.0192794
319.7779369
313.022021
297.9872418
300.2895457
314.3564875
319.9794318
325.6252476
299.2778149
324.5624885
312.4849351
300.7092458
299.2944172
337.6568278
299.1625632
327.1906321
320.9954067
296.8512411
296.6432796
297.0787663
298.3064498
296.7244002
297.2417234
299.4053596
296.8192522
297.3439428
306.7087755
299.7491893
302.2432698
299.6698824
298.6256453
313.0972619
308.4677708
300.8105326
296.8344911
296.8797547
302.9826954
296.6092668
296.7112893
296.8808958
296.4105414
297.0684042
305.560599
297.8090261
296.5576501
297.0872141
297.7142691
296.9000922
299.8135309
297.0153727
297.128815
296.8318968
296.8033539
304.6342985
296.9902466
299.6117215
313.4041294
367.6836006
352.5411558
302.3270319
305.3855327
304.3156374
353.0917158
315.3283547
324.0015391
339.7886125
303.50041
306.3036256
341.5680851
298.4479404
309.7607878
348.6400271
374.7685066
347.6114833
327.2423868
347.6140618
322.636024
354.03527
314.8648318
308.7824834
300.8543433
300.4598944
296.8627465
298.021447
299.6755543
310.0178102
307.0916116
298.0031733
306.8084474
304.5918658
308.7185004
299.9169093
299.1040628
307.1760287
297.6786271
296.5105014
297.2096319
303.6793235
296.7349844
296.9523478
296.6923694
297.083772
299.2555478
299.7412435
296.7882814
296.6666743
296.5932652
296.9929975
297.4475115
296.6872121
296.8976397
305.2775774
298.6078628
296.8205003
299.3268258
297.3001367
296.8097091
298.9481716
296.6997648
297.5013959
297.161753
296.8848723
297.5000651
300.2280599
296.8279249
296.6520643
296.6674518
296.8612719
296.6510263
296.8375851
296.7952835
296.7289772
299.4777314
297.1462278
297.4194804
296.8794654
296.9334567
296.8211773
346.2834734
335.2284926
415.239102
396.5468266
325.4228991
337.6036883
422.9847987
316.7935056
317.0424834
435.0354714
388.1390278
300.7675996
308.4958878
301.7029422
299.0747463
314.0834286
319.0153796
320.4093981
300.5228744
300.4164308
308.0891413
299.3653752
304.5428242
327.0328618
314.462468
308.4030706
304.4011052
306.3741692
313.6203375
309.478145
301.1433437
300.7217144
305.4348434
296.8390007
306.2232804
297.1825253
303.8988966
299.5343136
308.7598839
296.7168834
296.2839478
300.7642993
305.7369972
296.893325
297.5519619
300.60534
297.5822743
298.37492
307.2557051
304.634653
297.2633852
297.1191427
301.434485
296.7674987
297.6487962
296.4958671
301.1400287
296.4909178
298.2162283
302.6286332
302.302255
307.9671126
320.4930542
303.682256
330.3535209
348.0997261
313.7452817
301.2455713
298.9622316
309.5767156
299.1460864
388.9736211
347.1829421
316.6969857
360.9912017
304.1364983
298.5421284
314.1838477
301.0695193
310.2825839
304.3235246
333.0540727
300.5987704
298.8158177
310.9798776
298.1430405
298.7782189
308.1648834
305.1133711
302.8596387
316.0736479
305.5117036
302.8994387
310.5777935
297.3882917
298.1668421
298.2331546
296.9518996
302.6432222
299.8122864
296.9527292
298.67515
300.6049034
301.1902346
296.7472659
296.9368752
298.6398105
296.9881866
296.7947376
296.8552011
298.0955061
299.5381747
298.4869119
304.4009512
299.0743132
296.8315093
298.7191226
297.2022706
297.2060509
296.9727698
296.9286738
296.7587853
297.357554
296.683657
296.7700011
296.6438304
296.8839275
296.8915567
297.3689769
298.1505271
296.8621078
299.7292577
296.8977888
298.9099869
296.9293774
297.4313774
296.8955056
319.169296
405.4162728
321.9191362
345.7169631
351.3717234
338.6969041
303.7075912
364.7960352
353.1752834
306.3007375
339.9098427
327.5896623
347.10317
320.9551943
304.036937
307.8062324
303.1330491
299.0306237
299.281474
298.2929011
315.7093674
297.1898883
298.4602042
309.1988112
298.3370682
308.7510719
297.4476532
299.0341073
298.3763084
321.2261256
300.3367619
306.9709754
299.5010011
299.8206201
303.533776
299.6809119
297.110874
298.5488553
299.0703645
297.4053576
297.3613915
300.0994165
298.7799034
298.1975132
299.1231675
296.7040186
296.9638267
296.5788101
296.7135587
304.0252332
296.9165077
298.8251945
298.0050493
296.8787518
303.3815377
296.614131
297.5152174
297.9178283
298.0621765
296.3898558
297.3388714
296.8719979
296.8807403
297.1522741
296.4692735
296.904854
296.9104755
296.9582784
297.0492644
301.5824652
304.3363248
296.8801682
296.9164969
296.4090218
296.3039712
296.9452596
296.6899815
296.989764
405.2875466
349.6792826
341.7299388
313.7015871
300.730781
298.9998642
428.5036418
348.5523356
307.4035252
305.9480468
326.7685414
323.8520262
312.8315055
353.7396979
327.3440316
312.3455502
324.0418835
305.132548
298.5459871
308.968611
307.0991622
298.5859378
298.7413855
305.1908824
299.3923383
309.4052102
334.5381482
316.0443354
304.6834734
303.2463681
303.2889672
297.651007
296.899893
298.1286318
298.2790743
297.669516
297.6167433
296.7212839
297.0188369
297.0903796
300.0831526
298.8402519
297.3373543
297.6807305
298.0107009
313.8388107
296.7431674
298.577004
297.4807599
299.3805802
296.7028509
297.0215877
297.4853216
297.8678935
296.7847994
296.6162012
298.3190692
296.9724773
296.8824697
302.2047309
298.1193714
296.7851489
296.7296751
296.8780001
304.4452638
299.899003
303.1730379
391.8612136
319.9377132
337.854546
374.497176
329.5018151
340.9021507
408.4990886
305.7603573
341.1048635
323.9964185
310.3422367
304.9243393
300.3507363
375.3368423
304.4630002
361.8662889
385.0740331
297.9737756
299.0645074
297.8478784
298.5583111
301.1351221
300.527305
298.5537329
300.8887488
305.3069923
305.8161438
303.5555385
298.8544821
306.072048
302.649597
299.2048287
300.1791773
296.7429056
302.6645077
297.7979312
299.2283413
301.6423355
301.4721686
298.612064
305.4361334
298.4708239
299.9617511
299.4625347
299.0043653
296.4860395
296.6384687
296.7849591
297.3951672
296.5767514
297.2161028
298.0417919
297.8753932
297.4049959
296.9210838
305.917427
301.9649478
296.9015316
297.6105878
297.2324645
296.9874805
297.5480136
297.990497
296.9301011
297.1292378
296.9636969
298.0949557
296.9815006
297.0230067
296.5653497
297.0521432
296.6618255
296.7292988
296.4172514
307.2236109
356.7355658
335.7915047
374.3306794
337.9034842
398.2078386
302.9802491
346.293875
301.6541407
445.8921348
309.9654274
326.4234842
324.7786056
302.66352
318.3793905
361.8577063
352.8477604
387.857632
353.2226309
324.1322382
299.1492151
300.5014253
297.327263
299.3434179
297.7091825
309.6523752
319.6609348
329.1763196
300.7178804
299.8255178
305.0973043
299.4568604
298.925181
306.8990502
304.6328952
324.6929393
302.6484748
305.6344211
306.3632949
308.0556586
298.3828497
303.0587465
298.3424192
297.9319501
312.6001325
306.1451087
296.6716263
298.6276328
296.8035704
297.482256
311.8181822
297.5666472
296.7306766
302.1306182
297.7854454
299.287549
298.3950449
308.3021422
300.6017289
298.091244
307.5515767
296.868663
298.1462661
303.8149944
297.0682087
296.7708769
296.9904249
296.7009306
297.0841846
297.1530648
299.6756696
307.7535898
296.6289453
298.7318632
297.0931234
297.7918821
297.0415571
298.7704509
297.7740421
297.242538
302.4109723
296.8870596
309.954771
385.1720406
356.9586628
312.844642
309.8568453
315.1798442
313.7834339
321.7227503
331.8421136
362.2076188
307.0935347
313.3546729
313.6444666
337.3637175
299.246105
320.0108119
305.1989192
301.0498308
300.7699445
300.5965164
302.8206423
301.8412101
304.4279357
308.7304051
306.1231341
308.5108448
306.0053066
309.3740715
306.0971589
300.0400147
303.1122868
296.8708336
296.7287074
297.2629399
298.2176655
297.810826
298.1886576
297.9914861
297.0967639
299.9206625
296.8697877
301.0808871
299.7913792
299.5408665
299.2603324
298.5123819
297.6801715
298.9672839
296.7159347
298.9772882
296.6144792
303.7409849
296.6825426
296.7711387
299.3882761
298.3783945
298.3988126
297.4897281
297.3915
298.3576793
300.1722225
297.173362
313.4430647
305.4538229
389.9499914
326.6439799
337.7158412
319.1905516
300.7714854
299.2750057
350.1238472
310.0481746
341.5333573
310.5173333
332.4043832
319.0008346
333.5747227
389.755868
329.192633
308.4198395
369.100281
300.9774633
324.2145543
385.258782
299.2758955
298.9357982
300.4094296
298.3058501
319.0912861
311.1146837
310.4493903
297.4655681
298.3420684
306.0997188
302.4074395
301.1821243
317.3924366
297.9571746
299.543855
299.3935908
298.8214638
299.8303714
296.7268865
296.7728581
296.9910737
310.193923
310.4308158
304.3642272
299.2750467
299.0535575
296.3830415
296.972282
297.5007069
296.5060492
296.8164282
297.7653226
301.4425861
297.5674618
296.5089833
296.6937602
299.614401
305.8302815
302.7963686
297.1967464
300.6843908
304.0953768
297.248542
298.5750357
296.4205306
296.9017708
296.4305209
296.8156754
297.4100842
297.189557
296.8609563
300.0802268
301.591914
297.0832588
297.0287464
296.3718955
296.7450459
297.0857484
296.4109441
297.0729791
353.1673703
305.2145936
332.0429371
303.1090247
299.0286267
304.8950209
402.9191298
365.1682688
328.4207347
368.4249372
354.2657679
329.3238526
319.6444644
319.360794
308.5885965
388.1891492
299.3109612
307.4166042
298.8550465
307.2275579
328.612009
316.95125
299.9695952
301.1797474
314.2541844
302.5724859
299.110894
298.8986328
299.5623375
301.4985522
302.1917941
300.9251444
298.5249305
303.529769
297.2649764
297.5773104
296.7699269
296.9497962
310.0269884
300.7884992
296.9232177
301.8847735
301.727646
302.5244426
298.8848929
296.8751626
296.7571038
297.1227519
304.9700408
296.8468186
304.7381783
301.0433807
296.9825764
296.9205732
305.3374566
299.2902205
299.6307976
301.6660673
300.9053055
297.8661943
296.9584409
296.8350242
296.5698321
296.9533142
305.8348955
296.8464444
296.5764685
296.7148514
296.7442788
297.2988005
300.3706054
298.7571298
299.2363582
296.730262
296.8316989
296.7389467
296.5717005
298.3662879
297.645097
297.1467262
298.2249626
296.7740982
297.0090033
296.8605173
296.6164858
301.8761638
297.1443238
296.7288268
298.3992503
297.0260911
296.8069982
296.7892787
297.7478234
297.1158203
296.7225374
296.7260925
297.2757817
296.8828252
296.5682243
296.6953846
296.608042
296.5704925
297.3532088
296.8381189
297.0684362
296.8117321
297.4403355
296.9152377
296.6484299
296.6149601
296.7016938
296.8659642
296.6835986
296.7828083
296.5414184
296.5553631
296.6080373
297.0990872
296.7292356
297.0023084
297.0401335
297.1755313
297.0361258
296.9370519
299.861297
302.5746267
302.6841361
299.4317951
296.692377
296.934811
296.8901044
301.4508214
296.9715697
296.9761006
301.0276903
297.451803
297.0273407
296.592347
296.9388898
296.9110402
296.5610325
296.8627169
296.8465831
296.8359993
296.9601819
297.0129415
297.7839727
296.772576
296.9400914
296.9496787
296.5212614
298.8732995
297.6971163
296.8447148
296.6927978
296.8537278
296.9396919
296.723703
299.2356279
296.8010462
296.7644063
297.0458921
297.0330244
297.1653726
296.7674918
296.7911031
298.7776602
296.7531638
296.9819801
296.609099
297.2505415
296.9928225
296.8338104
296.6092614
296.705285
296.9487078
296.8073854
296.8306826
296.7596859
296.7991216
296.7483379
297.1222274
296.7602836
297.0260095
296.8196137
296.5561091
296.9144422
296.7838863
296.9112822
297.6223272
302.8829649
297.1188514
299.4234598
298.5114856
297.0515281
296.9629841
298.1713541
296.510501
296.658302
296.4096879
297.2862177
301.3749425
298.3889733
297.625988
297.1336901
299.7486255
300.3049327
299.4491212
297.0286148
297.6104822
300.188234
297.2622979
298.9214332
298.2194761
296.4347107
296.7603212
297.8250707
297.5226927
298.4574077
297.6862689
298.3710519
296.9610696
296.8867181
297.3722711
296.8897111
296.4638397
296.712155
296.8795597
297.9191139
297.0044952
296.8224726
298.2645906
296.836448
296.8749614
296.8836962
296.7594086
296.5688508
296.677979
296.549782
296.7193203
296.9226946
296.8124168
296.7836353
296.7242943
297.7794712
297.0891424
296.7964255
296.7047022
296.7911031
297.0475975
296.9242267
297.4967969
297.1798614
296.975156
296.7159656
296.9955891
296.8495346
296.5222338
296.7011541
297.3928716
297.4060109
296.7857517
296.7977927
297.4749177
296.6138731
296.9766115
296.8270867
296.7781986
297.1929374
296.888055
296.8227995
296.9084978
296.6869956
297.3408357
296.5555525
296.7859417
296.9428033
297.3783412
296.696043
296.6818416
296.7975943
296.8665853
296.8638208
296.7704666
303.899276
297.5508536
296.7867569
296.5641017
296.943312
296.450447
296.8868994
296.9818226
296.8945984
297.1731488
296.8898464
296.9141324
296.5981259
297.005837
296.6273163
297.4237692
296.963465
296.851905
297.0990528
296.939548
296.7363305
301.1004793
299.3261174
296.9563249
296.4418941
296.8450423
296.9748453
296.950661
296.8484561
296.709163
296.9021146
297.1410123
296.7994191
297.4507127
296.716755
297.7905274
296.7983267
296.6291112
296.9297632
300.3015329
297.5795963
297.0109178
296.5412839
296.9840375
296.5768796
296.8758547
297.4362336
296.840714
296.8809498
296.4796585
296.7143718
296.8450053
296.5182728
300.9118341
296.5949295
296.7100159
296.7805017
296.5609529
296.4610783
297.0517023
296.6877619
296.7401641
296.9864104
296.83334
296.6052633
296.8568586
297.4874589
297.1946251
298.0102565
297.9446418
296.9012212
297.0936377
296.8822849
297.8812091
297.0486694
296.4840822
296.4923169
296.8639343
297.2253377
297.1238965
297.0689697
296.9432693
296.7908999
297.1593089
296.8813463
296.8790512
301.1624306
296.8523976
296.8686068
297.0119119
296.9158217
296.8795839
297.3259049
297.339416
296.6551189
299.8587994
297.0536955
296.5416519
297.0069929
296.8040033
296.6581959
296.9126172
297.188383
302.8634978
301.1070884
297.5423144
297.2316545
297.0511587
297.1676782
296.7151978
297.1349653
297.2791574
303.4278435
300.2101006
298.3498586
297.069579
297.4684187
296.8421406
297.1378695
297.0297049
297.0830452
297.5515457
297.13713
297.5274221
297.0710425
296.883146
301.0195605
297.1963334
296.7312938
296.7276751
296.5142701
296.7067591
296.826096
296.6467285
297.1774988
296.6980555
296.9055426
297.7271385
297.3941888
296.9166023
296.9677123
296.8231329
296.5409677
296.7863787
296.6320738
296.9682944
296.509076
296.4952613
296.9314295
296.5539864
296.8111749
297.2289083
296.6121359
296.8679354
296.6636479
297.0241308
297.1374541
296.8037235
296.7793628
296.6225725
296.8165774
296.7370358
296.9086107
302.8186159
302.3993414
299.4791434
298.1292989
297.7373282
296.5696697
296.5118928
296.8050175
296.9042344
296.7960862
296.4505247
296.8673241
296.8913231
299.6909112
298.2924537
296.4290882
297.003242
297.0207596
297.5162775
297.0345898
297.025268
299.5017949
297.3825572
297.0892395
297.1906709
296.5986691
296.4522406
296.8450534
296.7868333
296.4646485
297.0419187
296.8066383
296.4136678
296.7247479
297.0254324
297.0917569
296.9024183
297.0742471
298.540349
296.9912587
302.6112768
300.5241622
296.9461364
296.8497756
296.5650528
297.685583
296.8449239