/*--------------------------------*- C++ -*----------------------------------*\
  =========                 |
  \\      /  F ield         | OpenFOAM: The Open Source CFD Toolbox
   \\    /   O peration     | Website:  https://openfoam.org
    \\  /    A nd           | Version:  7
     \\/     M anipulation  |
\*---------------------------------------------------------------------------*/
FoamFile
{
    version     2.0;
    format      ascii;
    class       vectorField;
    location    "60/lagrangian/coalCloud";
    object      torque;
}
// * * * * * * * * * * * * * * * * * * * * * * * * * * * * * * * * * * * * * //


2500
(
(-9.898857312e-06 -4.671273837e-07 1.167323618e-06)
(6.09287562e-06 3.463654232e-06 3.118338977e-06)
(-3.676614141e-06 -6.47853943e-06 -2.363136455e-06)
(-7.056859136e-06 4.784309384e-06 1.569519805e-06)
(3.881735721e-06 -3.254146785e-06 -2.158929053e-06)
(-5.666480949e-06 5.558298285e-06 -1.136883256e-07)
(1.149471168e-05 -2.201497557e-06 -2.706470663e-06)
(-8.488251386e-06 1.167010722e-05 -1.938136981e-06)
(-2.484748199e-06 1.676208979e-06 -1.447778563e-06)
(7.480191153e-07 2.351050146e-06 1.571764629e-06)
(5.405908843e-06 -5.258504407e-06 6.970437078e-07)
(9.331533238e-07 -8.118032779e-07 -8.765711971e-07)
(-1.367603762e-06 5.09523297e-06 -1.10617499e-06)
(4.725644911e-06 -6.037348483e-06 1.585225439e-07)
(6.191229063e-08 -1.725601815e-06 1.790376101e-06)
(-4.357525406e-06 5.151545958e-06 -3.392580432e-06)
(8.811996612e-06 -7.654687908e-07 -1.53657546e-06)
(5.630453335e-07 7.396345696e-06 3.553137511e-06)
(-2.005332168e-06 -2.476085116e-07 9.491849387e-07)
(-5.858665851e-06 1.107020159e-05 -2.969155962e-06)
(-2.457345607e-07 -6.078970269e-08 -5.890315722e-07)
(3.685306319e-07 1.567050796e-06 -2.214209628e-06)
(-8.215755387e-07 -7.03335897e-06 -1.728340048e-06)
(-9.29932084e-06 -3.183524856e-06 3.585505967e-06)
(-8.288443337e-07 4.34876222e-06 2.557408004e-06)
(1.67814007e-09 -2.076858371e-06 3.072249174e-07)
(-2.975275971e-06 2.598678232e-06 6.717387026e-07)
(-8.366250124e-06 1.011417251e-06 -7.255747905e-07)
(-1.385661696e-06 -2.279324489e-06 1.728448792e-07)
(-3.041194925e-06 4.526571717e-06 4.427605743e-06)
(-4.164827847e-06 5.29710508e-07 1.786808976e-06)
(2.441914675e-06 -7.792968343e-07 -1.326904655e-06)
(5.836866949e-06 6.714948916e-07 -3.386793624e-06)
(6.822356037e-07 -3.221011309e-06 -1.07875601e-06)
(-3.825293196e-06 -3.88598099e-06 2.270774631e-07)
(3.788924191e-06 1.507444804e-08 -6.310835992e-07)
(-1.426317998e-05 5.856677847e-06 2.323193652e-06)
(1.280539782e-05 -2.89892517e-06 1.139540419e-06)
(-3.949315609e-07 -5.000597327e-06 4.130076522e-07)
(-5.316149361e-06 -5.268639606e-07 -2.62662805e-07)
(1.759058884e-06 -1.810507802e-06 4.27609613e-06)
(-2.362314783e-06 -2.238041093e-06 2.120462348e-07)
(7.02186007e-06 -4.555684689e-06 -3.865935167e-06)
(5.788056938e-07 1.094990056e-06 -4.289117275e-07)
(-7.933422632e-07 -3.315972666e-06 1.350240575e-06)
(-8.689849991e-06 -1.59022459e-06 -8.819134744e-07)
(-2.136566772e-06 -4.361244097e-06 3.786656178e-06)
(-1.731204729e-06 2.529473911e-06 -4.197637827e-06)
(2.184458748e-06 -1.6424374e-06 3.68944897e-06)
(-1.031488996e-06 2.389400047e-07 2.757368358e-09)
(1.934361936e-06 -4.743208933e-06 1.080591821e-06)
(-2.538449951e-06 3.645931614e-07 -8.337701353e-07)
(-2.962694005e-06 -1.52471729e-06 2.310347121e-06)
(-2.348508668e-06 8.877538752e-07 -6.009263798e-07)
(-1.641558467e-06 9.697779922e-07 -1.432266163e-06)
(3.661112208e-06 -1.018786739e-06 -7.389284574e-07)
(4.338696238e-06 -2.521538338e-06 -3.858882596e-07)
(7.133148843e-07 -1.896891277e-06 -6.204957833e-06)
(-1.651447917e-07 -2.113432582e-06 -2.047230093e-06)
(-2.007533164e-06 9.472244938e-07 7.997001716e-07)
(3.927872032e-07 1.434155971e-07 2.720503347e-06)
(-6.655789878e-06 -4.904730763e-06 -4.468529081e-06)
(2.72446346e-06 2.841672562e-07 -1.724060919e-08)
(-1.802300921e-06 3.290712001e-06 -1.162855431e-06)
(-7.56808017e-07 -8.752546994e-07 2.291235733e-06)
(-1.165229618e-06 -2.14436604e-06 1.518844444e-06)
(-3.350585041e-06 4.950511124e-06 -1.41519383e-06)
(-1.543426557e-06 1.177361937e-06 -5.467212696e-07)
(-1.221975376e-06 9.732862725e-07 -2.175750346e-07)
(3.758156462e-06 1.150552238e-06 1.118839877e-06)
(7.360866337e-07 -1.57236177e-07 1.046628223e-06)
(-2.018990477e-06 2.408982557e-06 -5.223611021e-07)
(1.439616475e-06 -4.428409022e-07 2.416591073e-06)
(1.799155634e-06 -1.946919207e-06 -2.08878173e-06)
(8.603057491e-07 1.066428724e-06 -4.287320378e-07)
(-3.262082893e-06 2.176911153e-06 1.784253745e-06)
(-2.61393874e-06 1.760240165e-06 1.282555074e-06)
(1.80914791e-06 -2.473366457e-07 -1.335036476e-07)
(-7.250751615e-07 1.403607295e-06 7.804690704e-08)
(3.007929006e-06 -3.162149191e-06 4.57140082e-06)
(-4.451819328e-07 -2.515750365e-06 -2.539631642e-06)
(1.506040086e-06 -9.651946994e-07 -1.712003339e-07)
(-6.195311278e-06 1.659865921e-06 -4.293117389e-07)
(-9.430417e-07 -4.826305301e-07 9.110515871e-07)
(3.661639243e-06 2.886706544e-06 -6.580626346e-07)
(4.735821333e-06 -5.128994209e-07 -1.282980163e-06)
(-1.415706361e-06 -4.437703999e-06 -2.000248107e-06)
(-9.502986703e-06 -1.366715103e-06 2.099811807e-06)
(-4.294051939e-06 -8.887719246e-07 -7.375857315e-07)
(-1.493775859e-06 -1.926334264e-06 7.448868506e-07)
(-4.053809745e-07 3.493680789e-06 7.404744041e-08)
(-9.933746745e-07 -1.043359002e-05 1.183729932e-06)
(-3.864095102e-06 -9.312109508e-07 1.113489873e-06)
(-2.7998306e-07 -5.531667237e-06 -9.683855459e-07)
(5.204517587e-06 -1.094291592e-07 -7.130458064e-09)
(-3.280203201e-06 -1.85034919e-06 -1.965309645e-06)
(-5.533659956e-06 9.663807595e-07 -1.017950474e-06)
(-2.141609362e-06 6.800281877e-06 -5.474806868e-06)
(-2.775472521e-06 4.820703714e-06 1.0275843e-06)
(1.911505758e-06 -1.033962534e-05 -2.882182571e-06)
(5.435434259e-06 3.692583237e-06 5.16700895e-07)
(-3.838684247e-06 4.793754955e-06 -3.399530869e-07)
(-3.074482614e-06 -4.427293365e-06 6.655990151e-07)
(1.062209617e-05 7.689669755e-07 2.098033872e-06)
(-1.423812486e-07 3.671837374e-06 -1.374473158e-06)
(4.417562007e-07 -2.855710511e-07 -9.101275328e-07)
(-1.115815405e-06 1.667074668e-06 3.439794216e-06)
(-5.180194781e-07 1.998977006e-06 -1.312658528e-06)
(-7.874256196e-06 1.243963147e-05 -1.766260242e-06)
(2.182044182e-06 -2.655248025e-06 1.451514232e-06)
(2.245808956e-06 -2.980999645e-07 -6.500273747e-07)
(-1.833775875e-06 3.150229765e-07 5.586678133e-07)
(-2.446545138e-06 -2.817949058e-06 -8.728823014e-07)
(0 0 0)
(-4.732486909e-06 -4.153204702e-06 -2.376398785e-06)
(2.945018714e-06 1.394416767e-06 -3.807713647e-07)
(1.451176895e-06 2.085087536e-06 -2.008032323e-06)
(4.688159886e-06 2.142997264e-06 6.238251657e-09)
(1.346299112e-06 -5.213548655e-06 -3.456233344e-06)
(-2.842985701e-06 -6.569792847e-08 3.838024203e-07)
(-1.353286615e-06 -3.811304955e-06 1.189263627e-06)
(-2.738106318e-06 2.982669506e-06 7.257470574e-07)
(1.361451612e-06 -9.303872281e-07 6.622692811e-07)
(1.631718098e-07 3.297543839e-06 2.367640419e-08)
(5.083130599e-06 7.392154123e-07 -4.890612355e-06)
(4.698946241e-06 2.80440023e-08 6.115079247e-06)
(1.774522769e-06 -1.917515746e-06 4.232269128e-07)
(2.917029495e-06 -8.024274686e-06 8.544619549e-07)
(-2.932948187e-07 4.46752986e-06 1.567455893e-06)
(3.724129792e-06 -2.585623878e-07 -3.596814238e-07)
(2.883417254e-06 -2.161668855e-06 1.497559664e-06)
(-1.32997216e-06 3.432283753e-06 -5.23864508e-06)
(-9.97807114e-06 -9.009521714e-06 -2.37390779e-06)
(1.968547555e-06 1.947627024e-06 7.181160351e-07)
(3.981896205e-06 -1.458103871e-06 -3.416535192e-07)
(-2.099246006e-06 -2.337618024e-06 -3.619336381e-06)
(-2.273330219e-06 -3.043950372e-06 4.634921029e-06)
(-5.30095185e-06 3.933524213e-06 5.934282534e-06)
(1.228277856e-06 -3.939710096e-06 -2.366056365e-06)
(3.474700843e-06 2.75223173e-06 2.406279883e-06)
(-3.231074911e-06 2.555484344e-06 -1.950206692e-06)
(-1.686005537e-06 1.679845675e-06 3.423468857e-06)
(5.447373512e-07 8.442275705e-07 -3.522078118e-07)
(-1.721024341e-06 4.686494519e-06 2.185137428e-07)
(1.53917314e-06 -3.33937106e-06 -1.007353785e-06)
(3.546128898e-06 4.319194266e-06 3.47977336e-07)
(-3.763106014e-06 -3.377716169e-06 -2.174435314e-07)
(-8.550428302e-07 1.363072845e-06 -1.250829542e-07)
(-1.237901246e-06 -3.948482537e-06 1.853570226e-07)
(-1.482498894e-06 4.26159989e-06 -1.171654027e-08)
(8.63870031e-07 -1.344628597e-06 -1.24587514e-06)
(5.376519915e-07 -1.0121511e-06 -6.331097928e-07)
(1.508012762e-06 -6.368275687e-06 2.771453011e-06)
(7.011070577e-06 -1.139228782e-06 1.809113298e-06)
(-1.4166377e-06 -2.444423202e-06 2.503524004e-06)
(2.820596558e-06 4.616264835e-08 7.477327618e-07)
(2.767324397e-06 -1.524006153e-07 -2.026969505e-06)
(-2.401490834e-06 -3.419914411e-06 -1.619310863e-06)
(-1.487492226e-07 2.626624638e-06 -3.762067487e-07)
(9.033854585e-07 6.088809429e-07 -2.100784939e-06)
(-2.296640432e-06 8.884526331e-07 -1.372930304e-07)
(-3.731561028e-07 5.968980487e-07 -4.466929094e-08)
(-5.064842443e-07 -4.894560317e-07 -1.279010642e-06)
(1.423771638e-06 -8.266652549e-07 -2.959676795e-06)
(1.703380399e-06 4.119281049e-07 -2.070779147e-07)
(5.042044434e-07 1.023793924e-06 1.45905419e-06)
(1.008259328e-07 2.981862606e-06 -2.73748531e-07)
(-6.915891263e-07 -2.035223932e-06 -9.788569458e-07)
(1.017910804e-07 -2.137138904e-07 1.271968432e-06)
(2.201399151e-06 1.938020897e-06 -2.731965747e-07)
(-1.70697899e-06 8.466969945e-07 1.596995854e-06)
(-1.83703323e-08 -1.101282949e-06 -1.194028352e-06)
(1.697723656e-06 1.251955269e-06 4.631466486e-06)
(-1.088366849e-06 2.319895837e-07 -2.409788283e-06)
(-1.607351953e-06 -2.732981712e-06 -7.000646081e-07)
(6.053247761e-07 -1.264396489e-06 -8.319896562e-07)
(4.883363229e-08 7.796776291e-07 7.844674608e-07)
(6.026080254e-07 -1.325568036e-06 6.946186597e-07)
(-3.911227786e-07 1.100368232e-06 -6.078013717e-06)
(1.396032084e-06 -2.040062958e-06 -5.873939189e-07)
(-2.434309e-06 -2.930487268e-06 -4.386853909e-07)
(-3.907018356e-07 3.09146158e-06 5.001056143e-07)
(1.973959338e-06 8.261389412e-07 -2.093355358e-06)
(-2.607183002e-07 -5.686762609e-07 3.358436405e-06)
(1.667114636e-06 -1.68883744e-06 3.726912994e-07)
(-2.692570743e-06 -6.907784541e-08 -9.653734791e-07)
(2.268642816e-06 1.453960581e-06 -1.547226607e-06)
(1.511007675e-06 1.981276276e-06 2.017589331e-06)
(1.374099391e-06 -1.359195781e-06 -5.36798244e-06)
(8.561239341e-07 -7.630377602e-07 1.255410649e-07)
(-6.433512869e-07 1.309927212e-06 2.392551335e-07)
(-2.782092414e-06 -7.957443891e-06 -2.108328531e-06)
(-4.180166636e-06 1.076609209e-06 1.388323976e-06)
(3.042545693e-06 1.104966482e-05 -2.561685062e-06)
(-1.795007901e-05 7.042080604e-06 -7.436429776e-07)
(-8.778975307e-06 -2.85672233e-06 4.964021694e-08)
(-1.065250382e-05 2.641392509e-07 3.285215138e-07)
(-4.415448819e-07 4.283712659e-06 1.545169742e-06)
(-1.910783062e-07 -8.847454783e-07 -1.847245745e-06)
(3.40197539e-06 -1.328604702e-05 -1.244050204e-06)
(-8.557209884e-06 6.018152318e-06 -3.441480448e-06)
(-3.831785321e-06 -2.056789192e-06 4.939305864e-06)
(8.500924272e-06 -1.388126896e-05 -1.986826939e-06)
(5.403276754e-06 -6.814904643e-06 8.164782755e-07)
(4.834569461e-06 2.213166356e-06 4.151665901e-06)
(-3.905062287e-06 1.201714707e-05 2.427854149e-06)
(-4.058631116e-07 2.148482822e-06 -1.830196472e-06)
(1.391485909e-05 -8.173685983e-06 -6.728733543e-07)
(-5.685206091e-06 3.851771472e-07 1.343449143e-06)
(-7.198785526e-07 5.066356791e-06 4.09009417e-06)
(-9.769991505e-06 6.278379911e-06 1.79088261e-06)
(-1.275140101e-05 -3.485275115e-06 -3.814473907e-06)
(-3.742190486e-06 -1.603419946e-06 -8.579082002e-07)
(0 0 0)
(1.105331052e-06 -3.949212718e-06 2.844781634e-06)
(3.280514389e-06 -1.345154199e-05 8.749466545e-08)
(9.025953127e-07 -5.035523948e-06 -5.702705653e-08)
(1.354950014e-06 -4.461549132e-06 -2.373478645e-06)
(-7.706788924e-06 1.718057245e-06 2.966858061e-07)
(-5.445624249e-06 -3.268204011e-06 -1.782731953e-06)
(-4.306252056e-06 -2.024812707e-06 -3.627784868e-06)
(-7.538624758e-06 6.100817669e-06 4.725732834e-06)
(6.134371152e-06 -2.963704481e-06 1.084542689e-07)
(1.8103041e-06 -1.038265098e-06 -2.328540734e-06)
(4.907353071e-06 3.474485572e-06 -3.533368159e-06)
(1.025240245e-06 -5.325499202e-06 -5.905022597e-08)
(-4.856894412e-06 5.138099641e-06 -2.067801897e-06)
(-1.406880998e-06 7.848663532e-07 -1.234975577e-06)
(6.307534789e-06 -6.219641028e-06 -1.451420133e-06)
(2.398817664e-06 4.975138232e-06 2.202149951e-06)
(-5.052270206e-06 3.364798124e-06 3.318279377e-06)
(-4.113934467e-06 -3.127925523e-06 -1.476038218e-06)
(-4.559130945e-06 -1.206361672e-06 4.141212556e-06)
(-8.166041576e-06 -6.232151176e-06 -2.950853981e-06)
(-6.087224649e-06 1.853465388e-06 5.146903178e-06)
(2.454029492e-06 -2.951970721e-06 -3.45382702e-06)
(5.810389956e-07 9.604690341e-07 6.656256293e-07)
(-4.844464354e-06 -5.740277155e-06 9.661900657e-07)
(6.630265183e-06 8.907063039e-08 -7.011064129e-06)
(-3.348150475e-06 5.214352236e-07 -2.541412119e-07)
(-6.351209113e-06 -4.561049388e-06 4.467524411e-06)
(1.221980034e-06 -4.599823201e-06 6.748390552e-06)
(5.652735565e-06 -1.445860365e-05 2.236316289e-06)
(-8.191576566e-08 3.400060218e-06 -1.546924915e-07)
(6.221887702e-06 4.029648219e-07 2.662114863e-06)
(1.754311716e-06 6.669922137e-07 2.324295805e-06)
(-3.012483724e-06 8.578138283e-07 -5.748664282e-07)
(-1.466953251e-06 2.540271759e-06 -7.686708588e-07)
(3.28817824e-06 4.236555299e-06 -2.605186664e-06)
(3.12674793e-06 2.315241363e-06 -3.100041875e-07)
(-2.216189086e-06 -7.881888235e-07 -3.04408516e-06)
(1.983922219e-06 -2.58452697e-06 -1.468754926e-06)
(-9.355258983e-08 8.302127819e-06 1.678520786e-06)
(-4.652753812e-07 -3.231368679e-06 -1.758900693e-06)
(1.374753086e-06 1.840117233e-06 1.980543394e-06)
(3.245247615e-06 -3.483045816e-06 -5.315746761e-07)
(3.670991389e-06 1.221369119e-06 -1.063470788e-06)
(1.081950577e-06 1.880824603e-06 4.399635382e-07)
(2.647399582e-07 -3.46927976e-06 -1.403808049e-06)
(-7.922716403e-07 -1.899525467e-06 1.570994831e-07)
(-2.427838853e-06 2.711202867e-06 1.84886139e-06)
(-1.562599971e-07 -1.23626429e-06 -4.162026118e-07)
(4.169517882e-06 -4.215700357e-06 3.176742427e-07)
(-1.006882231e-06 1.637063747e-06 1.141588495e-06)
(1.389710885e-06 2.69870123e-06 -5.428946927e-06)
(-2.251875775e-06 1.48375341e-06 -1.933996165e-06)
(-6.872040759e-06 -4.848831301e-06 2.748187479e-06)
(1.85086604e-07 2.465918528e-06 -2.088001866e-06)
(-2.301661853e-06 1.345952496e-06 1.634055248e-06)
(-7.637468124e-08 8.833816861e-07 -1.047062471e-06)
(-2.142637466e-07 -1.582873769e-06 2.123716385e-06)
(-2.951008864e-06 3.250109245e-06 -2.796123222e-06)
(-2.902782105e-06 4.190372195e-06 -2.599052683e-06)
(2.50173295e-06 3.242836929e-06 2.695679215e-06)
(1.742378127e-06 6.558990874e-07 -8.373488645e-07)
(2.076387939e-06 2.725464602e-06 -2.435405247e-06)
(1.27568619e-06 2.45374322e-06 3.109433645e-06)
(1.51349669e-06 -3.116367054e-06 -1.408204608e-06)
(-3.325553249e-07 -3.948853799e-07 -4.802863193e-07)
(-2.889326543e-07 1.159798419e-06 1.671759076e-06)
(3.527852869e-07 -9.293318412e-07 -2.250117185e-07)
(1.722226484e-06 -4.226831726e-08 6.408511646e-07)
(-1.516000646e-06 2.586076766e-06 1.179162685e-06)
(-6.366790572e-07 1.642112717e-06 2.920791855e-06)
(-9.55352139e-07 1.247207662e-07 2.920379919e-06)
(3.688752899e-07 -1.933942036e-06 2.438682542e-06)
(-9.955515524e-07 1.670939058e-06 2.108649138e-06)
(1.110262617e-07 1.129943676e-06 -1.654698783e-06)
(-2.785194805e-06 -4.816883932e-07 -1.605130134e-06)
(5.373839939e-07 1.289394121e-06 1.127227011e-06)
(-1.008069957e-06 -1.552589346e-07 2.439823118e-06)
(-1.500631516e-06 2.491859154e-06 1.183624291e-06)
(-8.478866719e-07 -3.963029392e-07 -9.015350953e-07)
(-2.231484314e-06 7.572162449e-07 -1.841368782e-06)
(4.529210438e-06 6.567024178e-06 -1.355037291e-06)
(-4.065603858e-08 -1.873914975e-07 -3.164755484e-07)
(2.089395551e-06 -4.093504885e-06 -2.351655277e-06)
(-5.43685245e-06 -5.06584971e-07 2.7296571e-06)
(-8.065725482e-07 -5.023462297e-06 -1.794349596e-06)
(1.184776364e-06 -4.669641308e-07 2.744384105e-07)
(2.704232177e-06 -2.574420064e-07 -2.65009809e-06)
(1.083936141e-05 1.576930599e-06 -1.308807699e-06)
(4.72026945e-06 -1.841130838e-06 -6.486606919e-07)
(-3.965924722e-06 -1.261128505e-06 5.082876505e-06)
(4.927944377e-06 -5.813244042e-06 4.879387242e-07)
(-1.631061207e-05 -1.270625828e-05 4.204563684e-06)
(-1.156772486e-06 7.070663411e-06 4.08766396e-07)
(-5.610461985e-07 -7.950154249e-07 -2.066812439e-06)
(-7.142172591e-07 -4.451624379e-06 2.072401569e-08)
(4.908305422e-07 -4.840486292e-06 3.074589304e-06)
(-8.861368594e-06 -6.355897405e-06 3.798486484e-06)
(-3.328875273e-06 -4.789785526e-06 9.988736066e-07)
(6.901315054e-07 -1.407957791e-06 2.195590649e-06)
(-1.281755561e-05 -1.417867679e-07 -4.091102822e-07)
(0 0 0)
(0 0 0)
(2.46064613e-06 1.061703398e-06 1.784727854e-06)
(-4.665358849e-08 3.263183919e-06 8.141638978e-07)
(-2.801629313e-06 -5.920435959e-06 7.95335825e-07)
(-1.378531253e-05 -1.962197932e-06 -7.702427331e-07)
(-2.277652524e-06 1.27098518e-07 -3.218666683e-06)
(4.196494696e-06 -6.796237949e-06 4.167792178e-07)
(2.033735666e-06 1.271838464e-06 -2.236472776e-06)
(-3.421478326e-06 -3.264271918e-07 1.042993397e-06)
(5.191562331e-07 4.002608784e-06 2.54851426e-07)
(2.688368297e-06 4.104192816e-06 -2.408776534e-06)
(-2.451350118e-06 -3.155552701e-06 3.561285804e-07)
(1.372560063e-06 -2.349900372e-06 -1.671359658e-06)
(-8.221859845e-07 1.891517787e-06 -1.379288522e-06)
(-6.589832172e-07 -1.211884397e-06 3.158201066e-06)
(1.604041799e-06 -7.277571509e-06 5.278196442e-06)
(-9.859630224e-06 -7.673126801e-07 -8.26859942e-07)
(5.859900301e-06 -2.444220145e-06 1.397434509e-06)
(2.709274506e-07 -1.905374498e-06 7.747848433e-07)
(-2.28157176e-06 -2.935089633e-06 6.207836688e-07)
(-4.28537822e-06 1.446596335e-06 1.245287092e-06)
(1.025341553e-06 8.411105827e-07 1.521482296e-06)
(2.514005645e-06 3.487854222e-06 1.848263635e-06)
(8.691675391e-07 -1.844548732e-06 4.440919588e-07)
(9.76182267e-07 1.569564194e-06 1.033112407e-06)
(1.01278755e-05 1.498903329e-05 -1.069374138e-06)
(4.930984179e-06 -7.04721759e-06 -9.937475021e-07)
(2.663540207e-07 2.949843727e-06 1.219142335e-06)
(-6.954489707e-06 -3.818943831e-06 -8.332414421e-07)
(-7.032340783e-07 -2.150983344e-06 -7.044453431e-08)
(-1.069974507e-06 -2.756604851e-06 4.761760469e-07)
(-4.62106127e-06 -3.487531426e-06 3.127979906e-06)
(3.278872124e-06 -7.42993621e-06 -3.091984893e-06)
(2.060780485e-06 -1.946694428e-07 -8.555823326e-09)
(-8.924959447e-07 2.615461795e-08 4.628435511e-07)
(1.986190377e-06 -2.710420884e-06 3.971708246e-08)
(-8.263052953e-07 6.929898932e-07 -4.740808808e-07)
(1.067429926e-08 -2.354564395e-06 -3.128785063e-07)
(-2.761844082e-06 -1.209012236e-06 -2.303471791e-06)
(3.408588443e-06 4.64945615e-09 -6.065766158e-07)
(8.597755325e-07 8.007653792e-07 -1.511068198e-06)
(3.826555065e-06 5.622314336e-06 -9.822017264e-08)
(-2.284021785e-06 4.368677479e-07 1.588520559e-06)
(-3.536445571e-06 -4.182728173e-06 2.299421246e-07)
(-4.338504151e-06 8.012005459e-07 -7.574977096e-07)
(-1.246641095e-07 2.073485438e-06 1.989840545e-06)
(3.137833595e-06 -2.903474663e-06 -2.464226151e-06)
(3.447663449e-06 -1.816886854e-06 -5.511293992e-07)
(6.062532189e-07 -1.101723351e-06 -5.488910306e-07)
(-6.572034007e-08 -2.073211507e-06 1.801786921e-07)
(-1.469005178e-06 2.552212718e-06 -4.336105618e-06)
(-6.303016692e-07 -2.014900823e-06 -1.956474609e-06)
(-5.881699353e-06 -2.078978064e-06 -9.260168744e-07)
(-1.303417905e-06 2.688406098e-06 -3.727297768e-07)
(-1.986637453e-06 -2.215395701e-07 2.151059065e-06)
(-1.665223299e-06 1.404767403e-06 -6.041783472e-08)
(-1.108525566e-06 -4.754417644e-06 1.958957024e-06)
(1.86025237e-07 9.203403282e-07 -1.048733278e-06)
(8.155742384e-07 1.914918649e-06 -1.004788876e-06)
(-1.566694733e-06 2.696818999e-08 -1.886536708e-07)
(3.038389758e-06 7.493929007e-07 1.133699937e-06)
(-5.337477355e-06 -1.006286634e-06 -1.99427001e-06)
(-1.934336425e-06 -4.341129102e-06 1.136591267e-06)
(-1.076863558e-05 -8.522234165e-06 1.918656166e-06)
(2.852800352e-06 -4.770431095e-06 -8.354124546e-07)
(-5.234482894e-09 1.023513573e-07 -9.825596432e-08)
(-3.057002089e-06 -1.504353136e-06 1.765172884e-07)
(-2.184988575e-06 6.10765882e-07 1.686529701e-06)
(-3.161680092e-06 -1.286670836e-06 -1.186606765e-06)
(1.258822371e-06 -1.484590521e-06 -6.695586232e-08)
(0 0 0)
(-8.690043939e-06 3.207695949e-06 1.358563237e-07)
(-5.671099251e-06 5.097424582e-06 3.672021947e-07)
(2.875749753e-06 -1.44400813e-06 9.892866199e-07)
(-8.514554801e-06 1.474747087e-06 -8.828980268e-07)
(-2.637980143e-06 -2.229766292e-06 -2.624705544e-06)
(2.991273176e-06 -1.067476493e-05 -5.05292614e-06)
(3.316145329e-06 1.229902766e-06 -4.966610823e-07)
(-2.666798161e-06 -7.743497802e-07 1.14796645e-06)
(2.462673133e-06 2.582902999e-07 1.517055719e-06)
(-1.788366731e-06 -2.367848122e-06 -2.73129124e-06)
(1.902708651e-05 -1.81853018e-05 1.20283733e-06)
(-2.422097755e-06 -5.189311093e-06 1.680115124e-06)
(-5.791549689e-06 -9.112431984e-07 6.538442255e-07)
(5.282203308e-06 -1.165132228e-07 -1.125666445e-08)
(7.903443942e-06 -5.661073548e-06 -1.900302587e-06)
(-1.301940763e-06 2.509523209e-06 -3.408133975e-07)
(1.227569129e-06 8.602265909e-07 1.93151076e-06)
(3.974819657e-06 4.216969546e-08 7.277057922e-07)
(2.215292833e-06 -3.089231826e-06 -2.790660581e-06)
(-4.279315581e-06 2.86594506e-06 -2.41264924e-07)
(-7.144994409e-06 2.899316386e-06 -1.080217583e-06)
(4.855345891e-07 2.46592927e-06 3.641464898e-06)
(-2.440398996e-06 2.450484585e-06 -1.767468721e-06)
(-7.205969422e-06 1.306111077e-06 2.906014262e-07)
(-3.21725873e-07 8.767417689e-08 1.223710385e-06)
(1.885700372e-06 1.011892048e-06 2.026182682e-06)
(-8.551196531e-07 2.184557923e-06 1.927840639e-07)
(5.748012688e-06 4.743597674e-06 1.927331637e-06)
(-3.324219397e-07 1.979019676e-06 7.501309991e-07)
(-2.124765137e-06 1.510767768e-06 -1.154593281e-06)
(-1.407072809e-06 3.408621896e-07 4.675651004e-06)
(2.511544045e-06 -2.320198879e-07 6.842927824e-07)
(-3.697041592e-07 2.638974006e-06 9.569108312e-07)
(-1.513410356e-07 -3.594336581e-06 1.444867762e-06)
(1.607373374e-06 3.312747315e-07 1.02427288e-06)
(6.648112982e-07 1.571377044e-06 -3.371434464e-06)
(-8.333515947e-06 9.87261192e-06 -1.267191897e-06)
(-7.860565087e-07 -7.305399368e-07 1.430756442e-06)
(9.681459012e-07 6.632353406e-06 -5.079018508e-07)
(-2.162913431e-06 -1.634227626e-07 7.312569243e-08)
(2.087700403e-06 3.583254975e-07 -2.377498881e-06)
(1.89621242e-06 7.271394044e-07 -1.431706026e-06)
(2.603860561e-06 -1.957495546e-06 3.295628174e-06)
(-3.101041217e-06 2.259345498e-06 -3.637956953e-06)
(5.080559543e-06 9.901580324e-07 6.984850473e-07)
(5.288551867e-07 -2.083698874e-06 -1.042749997e-06)
(-1.794380907e-07 -2.635100977e-06 -1.492928184e-06)
(-2.531603796e-06 2.319062993e-07 -1.079737692e-07)
(5.517288542e-07 5.871684969e-07 2.573017634e-07)
(-3.851768479e-06 2.859811899e-07 4.954826204e-07)
(9.950855666e-07 -2.97840605e-06 7.29615186e-07)
(7.2659637e-08 -2.091408918e-06 -2.650484763e-06)
(-3.381819194e-06 -1.236211965e-06 1.003772735e-06)
(2.076187359e-06 -4.809071929e-07 -9.313944096e-07)
(3.889695387e-06 -5.185339616e-06 -5.418846049e-07)
(-7.294927229e-07 -7.096622116e-07 -2.924227593e-07)
(-1.592438636e-06 1.580416079e-06 7.389564512e-08)
(-1.496425784e-06 2.885904829e-06 -1.624453569e-06)
(-2.777862875e-06 3.998027442e-06 2.042545636e-06)
(-8.747133309e-07 -1.540689068e-06 -6.420084532e-09)
(-9.977553607e-07 2.423386672e-07 2.431181713e-06)
(5.121448007e-07 -5.215056527e-07 3.816401252e-08)
(7.653743878e-07 1.799719213e-06 -1.158921328e-06)
(3.331748991e-06 -2.585246728e-06 1.249764098e-06)
(-9.462219955e-07 6.241009657e-06 1.395135877e-06)
(-2.444218716e-07 2.161495049e-06 1.313934266e-06)
(-3.085529265e-06 -1.681045462e-06 -1.603557925e-06)
(2.147913931e-06 -3.60510258e-06 1.8529747e-06)
(-1.221474479e-07 -1.677240463e-06 1.653426851e-06)
(1.738268684e-06 -1.321693086e-06 -2.243113533e-06)
(8.828388749e-07 -1.246829449e-07 -8.165271928e-10)
(-4.007939351e-06 3.394183204e-07 2.644440971e-07)
(-1.049474912e-06 -8.745389129e-07 -3.57095115e-07)
(1.699569046e-06 3.141946836e-07 1.574897313e-06)
(8.101800089e-07 6.018238742e-07 7.362166433e-07)
(-3.815851988e-07 2.146449022e-07 2.167730432e-06)
(2.380968605e-06 2.835238025e-07 3.634746549e-08)
(-1.320771765e-06 -4.597958682e-07 1.11890893e-06)
(-2.165664664e-06 3.852503944e-07 1.049714762e-06)
(8.582850735e-07 1.472978296e-06 -7.472398288e-07)
(6.841524766e-07 4.122502265e-06 1.470410885e-06)
(3.033333013e-06 3.688857898e-06 -1.995527732e-06)
(2.875915531e-06 1.6742111e-06 -1.514520037e-06)
(-2.057207345e-06 -9.209777691e-07 -1.852865615e-06)
(7.227639652e-07 9.268791896e-09 -1.125428234e-08)
(3.088617234e-08 -9.753285953e-07 -8.107468917e-07)
(7.160963158e-07 3.45067841e-07 3.079554939e-07)
(2.294216448e-06 1.305134453e-06 6.783503321e-07)
(4.614206518e-07 -1.521548906e-06 -1.156960553e-06)
(1.796293912e-06 1.411622326e-06 4.273480757e-06)
(-1.238308743e-06 -1.142532723e-06 2.881814025e-06)
(-6.031697327e-08 -1.978370971e-06 1.389659227e-06)
(1.12428458e-06 -3.687148227e-08 -1.303128247e-06)
(1.791834787e-07 -6.435841557e-07 1.748316868e-07)
(-1.526356452e-07 -1.57168227e-06 -1.381978137e-06)
(2.138467676e-06 -4.566477741e-06 -2.067720085e-06)
(2.649391754e-06 -1.508725634e-05 3.364101035e-06)
(-5.893974057e-06 -2.389732292e-07 5.066461063e-07)
(-5.699490064e-06 1.120219382e-05 6.326791083e-07)
(-2.442983186e-06 3.673743675e-07 1.783679419e-06)
(-5.705581023e-06 2.498726048e-05 2.338042093e-06)
(2.842773434e-06 2.251247617e-06 -1.043248254e-06)
(1.576057377e-06 -6.756690007e-06 -3.000161805e-06)
(1.408642998e-05 2.487599452e-05 4.194873017e-06)
(-1.035192326e-05 1.955972405e-05 -6.793858579e-07)
(-3.204970722e-06 -3.522925923e-06 -2.050475777e-06)
(-2.596261814e-07 4.597413657e-06 1.404822742e-07)
(1.820329797e-05 2.300405102e-05 -4.59911487e-06)
(1.211371956e-06 1.431715524e-06 2.113479111e-07)
(-3.293540873e-06 5.049047455e-06 9.399175149e-07)
(9.817761658e-07 2.293096492e-06 -1.837250319e-06)
(-4.672109334e-07 -1.809002777e-06 3.083127558e-06)
(-1.937012702e-06 7.590950258e-07 -3.855051076e-06)
(3.119373935e-06 2.954549801e-06 8.162429866e-09)
(-1.513710223e-06 -4.031491491e-06 4.896150456e-06)
(-9.950861041e-07 -5.445190784e-06 -3.194997399e-06)
(3.467697774e-06 -2.644825521e-07 1.657564407e-06)
(4.202072916e-06 -4.319847095e-06 1.189518978e-06)
(-2.247307376e-06 8.301871143e-07 4.15823175e-07)
(1.233091308e-06 7.500970274e-06 2.305307242e-06)
(1.300194817e-06 -3.408169954e-06 3.417906491e-07)
(8.070624965e-06 1.457068077e-06 -1.488348509e-06)
(2.084824344e-06 -5.512857304e-06 2.277303738e-07)
(0 0 0)
(-4.815155816e-06 6.423886036e-06 5.408461688e-07)
(1.589746418e-06 2.948023425e-06 -6.885004754e-07)
(2.042558522e-06 -1.235200995e-06 -1.071627658e-06)
(3.065022279e-06 5.33528326e-06 -2.300375765e-07)
(2.95980025e-06 6.622810767e-06 2.108094932e-07)
(-2.909426349e-06 4.302186685e-06 -5.873352756e-07)
(-2.940902339e-07 1.153077861e-06 -6.675399301e-07)
(2.016099357e-06 -5.638372504e-06 -6.462512104e-06)
(-5.59074307e-07 1.748380468e-06 1.830457628e-06)
(3.806730522e-06 -6.519747715e-07 1.575786982e-06)
(2.374829516e-06 -5.219070863e-06 -1.699485763e-06)
(-2.571947558e-06 3.813972967e-06 -1.176355069e-06)
(1.434325506e-06 1.241326154e-06 5.66785705e-06)
(-1.050711009e-06 1.188543275e-06 -2.257735024e-06)
(5.255342786e-06 -6.007492004e-06 3.502260718e-06)
(-5.9968497e-06 -3.440011029e-06 -8.880673466e-07)
(4.12991989e-06 -1.155727137e-06 -3.181155138e-07)
(2.441086403e-06 4.022155122e-08 -4.954822675e-07)
(-1.090210277e-07 3.048098668e-06 2.957584257e-07)
(3.553095831e-06 1.803754856e-06 -1.629077133e-06)
(-3.383094251e-07 1.617848473e-06 -9.250993629e-08)
(-1.705927112e-07 -1.724850208e-07 5.71391457e-08)
(7.728733396e-07 9.784021014e-07 9.160319683e-07)
(1.71656071e-06 3.654876135e-07 3.734972487e-07)
(1.897535516e-06 2.379000092e-06 -1.162528501e-06)
(-2.932620991e-07 1.805896675e-06 3.464939739e-07)
(-3.175830793e-07 3.123499112e-06 -2.310799592e-06)
(5.816251191e-07 -2.834248401e-06 1.467111502e-06)
(-2.174998787e-06 -1.504758613e-06 4.650222535e-07)
(1.474647336e-07 3.095340134e-06 1.996813085e-06)
(-7.161058031e-06 3.836405924e-06 -6.252829158e-06)
(-7.988386318e-06 -1.671595692e-06 -1.177229385e-07)
(-4.999886319e-06 1.010289779e-06 -1.539747152e-06)
(-6.657775727e-07 -2.506353611e-07 1.605940642e-06)
(-3.287873736e-06 -3.156591176e-06 2.280914924e-06)
(9.448454288e-07 -1.649111146e-06 -6.523389811e-07)
(7.170372775e-07 9.630586258e-08 1.896132584e-06)
(3.879075728e-07 3.555338496e-06 -6.773639041e-07)
(3.243956217e-07 -4.332298015e-07 -2.195180605e-06)
(2.758344762e-06 -1.476665838e-06 -7.772980364e-06)
(2.762782005e-07 9.735624997e-07 1.278938643e-06)
(-2.187952555e-06 -2.765080648e-06 2.708470292e-06)
(1.382031222e-06 8.146527252e-06 7.494514077e-06)
(-2.406555333e-06 2.029668535e-07 2.626649019e-07)
(-2.24947912e-07 -4.041893659e-07 8.314550639e-07)
(1.876562593e-06 4.072015276e-06 -6.645406169e-07)
(1.935516521e-06 1.150391004e-06 -1.900572704e-06)
(-1.538284139e-06 -1.312992422e-06 -3.586358543e-06)
(1.962279728e-06 1.337057431e-07 -1.670524792e-06)
(5.832184621e-07 2.169907277e-06 -2.544326298e-07)
(-5.162370135e-06 2.792623437e-06 1.960476409e-06)
(-2.008512014e-06 -2.333891585e-06 -2.070039021e-06)
(-2.061313596e-06 1.154310558e-06 2.974974904e-06)
(2.76046032e-06 -2.451399056e-06 2.197233954e-06)
(-2.936769108e-07 -6.085402084e-07 9.618189923e-07)
(-2.83881156e-06 2.224927778e-06 8.035342075e-07)
(-5.834894249e-07 -6.312350789e-07 4.388634175e-07)
(1.822479959e-06 -1.299159436e-07 -2.600461739e-07)
(-2.546232002e-06 1.98464975e-06 7.55284534e-07)
(6.556311611e-07 -1.203506002e-06 2.699350889e-07)
(2.022442387e-06 -5.259391896e-07 -1.587596628e-06)
(2.447624155e-06 -1.771014808e-06 4.012948728e-07)
(-7.86406064e-07 1.562811985e-06 -9.092888254e-07)
(-7.946760473e-08 -5.012645689e-07 2.338419415e-06)
(-1.815301645e-06 -3.619425859e-06 -1.89978425e-06)
(4.708659995e-07 -4.950075657e-06 4.327925716e-07)
(-1.051787822e-06 -2.282645305e-06 2.09569678e-07)
(1.225811595e-06 -1.126074993e-06 -2.82312866e-06)