/*--------------------------------*- C++ -*----------------------------------*\
  =========                 |
  \\      /  F ield         | OpenFOAM: The Open Source CFD Toolbox
   \\    /   O peration     | Website:  https://openfoam.org
    \\  /    A nd           | Version:  7
     \\/     M anipulation  |
\*---------------------------------------------------------------------------*/
FoamFile
{
    version     2.0;
    format      ascii;
    class       surfaceScalarField;
    location    "0.02";
    object      alphaRhoPhi;
}
// * * * * * * * * * * * * * * * * * * * * * * * * * * * * * * * * * * * * * //

dimensions      [1 0 -1 0 0 0 0];

internalField   nonuniform List<scalar> 
54
(
2.56241182e-08
3.209256043e-08
2.31147191e-05
-2.488613338e-08
3.096080236e-08
2.319203107e-05
3.172094628e-08
2.311582505e-05
2.457669962e-08
-1.859566621e-08
2.319857717e-05
-2.425498703e-08
-1.808377146e-08
2.327040014e-05
-1.839038394e-08
2.319832289e-05
2.536241568e-08
2.312844806e-05
-2.482352702e-08
2.320455645e-05
2.312919157e-05
2.754133575e-08
1.490067758e-08
2.297818552e-05
-3.072560858e-08
1.66305397e-08
2.313984388e-05
1.581554099e-08
2.297519181e-05
2.933902536e-08
-4.345271467e-08
2.313372599e-05
-3.011147209e-08
-4.270491291e-08
2.329559817e-05
-4.357897153e-08
2.313373625e-05
2.869822612e-08
2.296212632e-05
-3.106103411e-08
2.312770318e-05
2.296038366e-05
4.145171444e-08
1.04498084e-08
-3.814578137e-08
7.978856309e-09
9.495169865e-09
3.947034512e-08
-6.838974524e-08
-4.039738984e-08
-7.079352851e-08
-6.910197793e-08
4.080986453e-08
-3.915447921e-08
)
;

boundaryField
{
    inlet
    {
        type            calculated;
        value           nonuniform List<scalar> 9(-2.32112151e-05 -2.321120064e-05 -2.321118859e-05 -2.321121453e-05 -2.321119936e-05 -2.321118756e-05 -2.321121591e-05 -2.321120108e-05 -2.321118933e-05);
    }
    outlet
    {
        type            calculated;
        value           nonuniform 0();
    }
    walls
    {
        type            calculated;
        value           uniform 0;
    }
    procBoundary0to1
    {
        type            processor;
        value           nonuniform List<scalar> 9(2.277988219e-05 2.306527258e-05 2.278114115e-05 2.302684471e-05 2.330822813e-05 2.30256867e-05 2.270639904e-05 2.299056676e-05 2.270559816e-05);
    }
}


// ************************************************************************* //
