/*--------------------------------*- C++ -*----------------------------------*\
  =========                 |
  \\      /  F ield         | OpenFOAM: The Open Source CFD Toolbox
   \\    /   O peration     | Website:  https://openfoam.org
    \\  /    A nd           | Version:  7
     \\/     M anipulation  |
\*---------------------------------------------------------------------------*/
FoamFile
{
    version     2.0;
    format      ascii;
    class       volScalarField;
    location    "0.02";
    object      cpavg;
}
// * * * * * * * * * * * * * * * * * * * * * * * * * * * * * * * * * * * * * //

dimensions      [0 2 -2 -1 0 0 0];

internalField   nonuniform List<scalar> 
27
(
1011.981176
1011.981176
1011.981176
1011.981181
1011.981181
1011.981181
1011.981187
1011.981187
1011.981187
1012.030448
1012.030447
1012.030448
1012.030454
1012.030453
1012.030454
1012.030462
1012.030461
1012.030462
1012.115414
1012.115412
1012.115414
1012.115422
1012.115421
1012.115422
1012.115434
1012.115433
1012.115434
)
;

boundaryField
{
    inlet
    {
        type            calculated;
        value           uniform 1011.338357;
    }
    outlet
    {
        type            calculated;
        value           nonuniform 0();
    }
    walls
    {
        type            calculated;
        value           nonuniform List<scalar> 
36
(
1011.503841
1011.749152
1012.028073
1011.503915
1011.748394
1012.025913
1011.503841
1011.749153
1012.028071
1011.50384
1011.74934
1012.028643
1011.503914
1011.748577
1012.026474
1011.50384
1011.749338
1012.028643
1011.503841
1011.503914
1011.50384
1011.749153
1011.748489
1011.749338
1012.028071
1012.026201
1012.028643
1011.503841
1011.503914
1011.50384
1011.749152
1011.748491
1011.74934
1012.028073
1012.026202
1012.028643
)
;
    }
    procBoundary0to1
    {
        type            processor;
        value           nonuniform List<scalar> 9(1012.21326 1012.213258 1012.21326 1012.213272 1012.21327 1012.213272 1012.213288 1012.213286 1012.213288);
    }
}


// ************************************************************************* //
