/*--------------------------------*- C++ -*----------------------------------*\
  =========                 |
  \\      /  F ield         | OpenFOAM: The Open Source CFD Toolbox
   \\    /   O peration     | Website:  https://openfoam.org
    \\  /    A nd           | Version:  7
     \\/     M anipulation  |
\*---------------------------------------------------------------------------*/
FoamFile
{
    version     2.0;
    format      ascii;
    class       volScalarField;
    location    "0.02";
    object      pDyn;
}
// * * * * * * * * * * * * * * * * * * * * * * * * * * * * * * * * * * * * * //

dimensions      [1 -1 -2 0 0 0 0];

internalField   nonuniform List<scalar> 
27
(
1.461399434
1.473675029
1.461367737
1.473828687
1.486282179
1.473786505
1.461795784
1.47407576
1.461759588
1.824823733
1.847714601
1.824914643
1.847363619
1.870149327
1.847415889
1.824515108
1.847413765
1.8245442
1.813705464
1.848613975
1.813690773
1.844716526
1.879838101
1.844774141
1.806599363
1.84153447
1.806652028
)
;

boundaryField
{
    inlet
    {
        type            calculated;
        value           nonuniform List<scalar> 9(2.217706145 2.222617569 2.217704329 2.222618488 2.22811914 2.222616668 2.217706147 2.222617572 2.217704333);
    }
    outlet
    {
        type            calculated;
        value           nonuniform 0();
    }
    walls
    {
        type            calculated;
        value           uniform 0;
    }
    procBoundary0to1
    {
        type            processor;
        value           nonuniform List<scalar> 9(1.518204482 1.562170296 1.518169033 1.553838503 1.598295002 1.553858872 1.502512908 1.546377602 1.50254303);
    }
}


// ************************************************************************* //
