/*--------------------------------*- C++ -*----------------------------------*\
  =========                 |
  \\      /  F ield         | OpenFOAM: The Open Source CFD Toolbox
   \\    /   O peration     | Website:  https://openfoam.org
    \\  /    A nd           | Version:  7
     \\/     M anipulation  |
\*---------------------------------------------------------------------------*/
FoamFile
{
    version     2.0;
    format      ascii;
    class       surfaceScalarField;
    location    "0.02";
    object      rhoPhi;
}
// * * * * * * * * * * * * * * * * * * * * * * * * * * * * * * * * * * * * * //

dimensions      [1 0 -1 0 0 0 0];

internalField   nonuniform List<scalar> 
54
(
4.042271963e-08
5.062685718e-08
3.570194838e-05
-3.925852919e-08
4.889871573e-08
3.586089577e-05
5.004062611e-08
3.570365658e-05
3.881582376e-08
-2.933515197e-08
3.587101773e-05
-3.830771896e-08
-2.856105567e-08
3.602722215e-05
-2.90113138e-08
3.587062455e-05
4.000987704e-08
3.572315351e-05
-3.915976601e-08
3.588026324e-05
3.57243019e-05
4.171324665e-08
2.256810073e-08
3.35335542e-05
-4.653604679e-08
2.521797187e-08
3.379966142e-05
2.395372427e-08
3.352918529e-05
4.448867744e-08
-6.581212405e-08
3.379072519e-05
-4.565998878e-08
-6.475624436e-08
3.406192426e-05
-6.600334874e-08
3.379074019e-05
4.346543666e-08
3.351011798e-05
-4.704407183e-08
3.378192787e-05
3.350757481e-05
5.841615618e-08
1.472647508e-08
-5.375724388e-08
1.125264573e-08
1.338114318e-08
5.566534769e-08
-9.6378789e-08
-5.697276637e-08
-9.984068715e-08
-9.738250855e-08
5.751162413e-08
-5.517875928e-08
)
;

boundaryField
{
    inlet
    {
        type            calculated;
        value           nonuniform List<scalar> 9(-3.659605782e-05 -3.663654498e-05 -3.659601602e-05 -3.663656691e-05 -3.668185877e-05 -3.663652433e-05 -3.659605909e-05 -3.663654567e-05 -3.659601718e-05);
    }
    outlet
    {
        type            calculated;
        value           nonuniform 0();
    }
    walls
    {
        type            calculated;
        value           uniform 0;
    }
    procBoundary0to1
    {
        type            processor;
        value           nonuniform List<scalar> 9(3.084237084e-05 3.124464888e-05 3.084407538e-05 3.119259378e-05 3.159160546e-05 3.119102511e-05 3.074287979e-05 3.114345098e-05 3.074179544e-05);
    }
}


// ************************************************************************* //
