/*--------------------------------*- C++ -*----------------------------------*\
  =========                 |
  \\      /  F ield         | OpenFOAM: The Open Source CFD Toolbox
   \\    /   O peration     | Website:  https://openfoam.org
    \\  /    A nd           | Version:  7
     \\/     M anipulation  |
\*---------------------------------------------------------------------------*/
FoamFile
{
    version     2.0;
    format      ascii;
    class       volScalarField::Internal;
    location    "0.02";
    object      steelCloud:hsTrans;
}
// * * * * * * * * * * * * * * * * * * * * * * * * * * * * * * * * * * * * * //

dimensions      [1 2 -2 0 0 0 0];

value           nonuniform List<scalar> 
27
(
0.0001296812566
0.0001299299185
0.0001296812566
0.0001299299185
0.0001302074292
0.0001299299185
0.0001296812566
0.0001299299185
0.0001296812566
0.0001203339729
0.000120591466
0.0001203339729
0.000120591466
0.000120888665
0.000120591466
0.0001203339729
0.000120591466
0.0001203339729
0.0001028803507
0.0001030568642
0.0001028803506
0.0001030568642
0.0001032550622
0.0001030568642
0.0001028803506
0.0001030568642
0.0001028803507
)
;


// ************************************************************************* //
