/*--------------------------------*- C++ -*----------------------------------*\
  =========                 |
  \\      /  F ield         | OpenFOAM: The Open Source CFD Toolbox
   \\    /   O peration     | Website:  https://openfoam.org
    \\  /    A nd           | Version:  7
     \\/     M anipulation  |
\*---------------------------------------------------------------------------*/
FoamFile
{
    version     2.0;
    format      ascii;
    class       volScalarField::Internal;
    location    "0.02";
    object      steelCloud:UCoeff;
}
// * * * * * * * * * * * * * * * * * * * * * * * * * * * * * * * * * * * * * //

dimensions      [1 0 0 0 0 0 0];

value           nonuniform List<scalar> 
27
(
3.535606879e-08
3.542386353e-08
3.535606879e-08
3.542386353e-08
3.549952355e-08
3.542386353e-08
3.535606879e-08
3.542386353e-08
3.535606879e-08
3.280764186e-08
3.287784431e-08
3.280764186e-08
3.287784431e-08
3.295887214e-08
3.287784431e-08
3.280764186e-08
3.287784431e-08
3.280764186e-08
2.804911711e-08
2.809724145e-08
2.804911711e-08
2.809724145e-08
2.81512778e-08
2.809724145e-08
2.804911711e-08
2.809724145e-08
2.804911711e-08
)
;


// ************************************************************************* //
