/*--------------------------------*- C++ -*----------------------------------*\
  =========                 |
  \\      /  F ield         | OpenFOAM: The Open Source CFD Toolbox
   \\    /   O peration     | Website:  https://openfoam.org
    \\  /    A nd           | Version:  7
     \\/     M anipulation  |
\*---------------------------------------------------------------------------*/
FoamFile
{
    version     2.0;
    format      ascii;
    class       volScalarField::Internal;
    location    "0.02";
    object      steelCloud:hsCoeff;
}
// * * * * * * * * * * * * * * * * * * * * * * * * * * * * * * * * * * * * * //

dimensions      [1 2 -2 -1 0 0 0];

value           nonuniform List<scalar> 
27
(
6.879010676e-06
6.892201077e-06
6.879010676e-06
6.892201077e-06
6.906921778e-06
6.892201077e-06
6.879010676e-06
6.892201077e-06
6.879010676e-06
6.38317908e-06
6.396837934e-06
6.38317908e-06
6.396837934e-06
6.412603016e-06
6.396837934e-06
6.38317908e-06
6.396837934e-06
6.38317908e-06
5.457342478e-06
5.466705731e-06
5.457342478e-06
5.466705731e-06
5.477219249e-06
5.466705731e-06
5.457342478e-06
5.466705731e-06
5.457342479e-06
)
;


// ************************************************************************* //
