/*--------------------------------*- C++ -*----------------------------------*\
  =========                 |
  \\      /  F ield         | OpenFOAM: The Open Source CFD Toolbox
   \\    /   O peration     | Website:  https://openfoam.org
    \\  /    A nd           | Version:  7
     \\/     M anipulation  |
\*---------------------------------------------------------------------------*/
FoamFile
{
    version     2.0;
    format      ascii;
    class       volScalarField;
    location    "0.02";
    object      T;
}
// * * * * * * * * * * * * * * * * * * * * * * * * * * * * * * * * * * * * * //

dimensions      [0 0 0 1 0 0 0];

internalField   nonuniform List<scalar> 
27
(
299.6622878
299.6638131
299.6622879
299.6638209
299.6655283
299.663821
299.6623035
299.6638287
299.6623036
302.0800428
302.072735
302.0800365
302.0730576
302.0665413
302.0730713
302.080605
302.0732926
302.0806221
305.142024
305.1124867
305.1420398
305.1152095
305.0871331
305.1151727
305.147336
305.1176333
305.1472913
)
;

boundaryField
{
    inlet
    {
        type            fixedValue;
        value           uniform 298;
    }
    outlet
    {
        type            zeroGradient;
    }
    walls
    {
        type            zeroGradient;
    }
    procBoundary0to1
    {
        type            processor;
        value           nonuniform List<scalar> 9(308.6325357 308.5675701 308.6324882 308.5758669 308.5129782 308.5758063 308.6488727 308.5835165 308.6488358);
    }
}


// ************************************************************************* //
