/*--------------------------------*- C++ -*----------------------------------*\
  =========                 |
  \\      /  F ield         | OpenFOAM: The Open Source CFD Toolbox
   \\    /   O peration     | Website:  https://openfoam.org
    \\  /    A nd           | Version:  7
     \\/     M anipulation  |
\*---------------------------------------------------------------------------*/
FoamFile
{
    version     2.0;
    format      ascii;
    class       volVectorField;
    location    "0.02";
    object      U;
}
// * * * * * * * * * * * * * * * * * * * * * * * * * * * * * * * * * * * * * //

dimensions      [0 1 -1 0 0 0 0];

internalField   nonuniform List<vector> 
27
(
(1.671136906 0.001624148359 -0.00777644852)
(1.677918472 3.00582773e-05 -0.007856775249)
(1.67116049 -0.001601144789 -0.007793492813)
(1.678163025 0.001567872102 0.003157679853)
(1.685069087 1.209597078e-05 0.003163019213)
(1.678191882 -0.001562793804 0.003149159727)
(1.671631933 0.001597098287 -0.0111870044)
(1.678427897 2.150507025e-05 -0.01118341409)
(1.671661418 -0.001582657593 -0.01117851449)
(1.790036578 0.002749659396 -0.01482663483)
(1.801522962 -0.0001947316157 -0.01467092324)
(1.790088562 -0.002952901123 -0.01469496348)
(1.801663354 0.002954667607 0.007345547095)
(1.812856755 -6.21020052e-05 0.007558288813)
(1.801542992 -0.003025808898 0.007388780489)
(1.790342204 0.002868055525 -0.02091299716)
(1.801684732 -0.0001518335913 -0.02104950157)
(1.790324907 -0.003028533338 -0.02100188516)
(1.783189116 0.004342750692 -0.02068567618)
(1.800462136 0.0001614047317 -0.02115305134)
(1.782882099 -0.004191123256 -0.02092229267)
(1.799208624 0.003962300527 0.0118969318)
(1.816865548 -7.500533828e-05 0.01175984885)
(1.799250376 -0.004045924284 0.01181003496)
(1.780355377 0.004036540241 -0.02962303503)
(1.798070227 7.560835357e-05 -0.02963499183)
(1.780225072 -0.003970348853 -0.02947195413)
)
;

boundaryField
{
    inlet
    {
        type            interstitialInletVelocity;
        inletVelocity   uniform (1.23 0 0);
        value           nonuniform List<vector> 9((1.939284562 0 0) (1.941431252 0 0) (1.939284562 0 0) (1.941431252 0 0) (1.943832612 0 0) (1.941431252 0 0) (1.939284562 0 0) (1.941431252 0 0) (1.939284562 0 0));
    }
    outlet
    {
        type            pressureInletOutletVelocity;
        phi             alphaRhoPhi;
        value           nonuniform 0();
    }
    walls
    {
        type            noSlip;
    }
    procBoundary0to1
    {
        type            processor;
        value           nonuniform List<vector> 9((1.659707779 0.004222732665 -0.02803510274) (1.684798464 -0.0001928381012 -0.02780413207) (1.659758975 -0.004422115882 -0.02773487173) (1.680217217 0.004582391916 0.0140771987) (1.705397921 0.0001113183899 0.01459012237) (1.680222583 -0.004479865108 0.01425027822) (1.65090366 0.00445598894 -0.03716015494) (1.676069303 -2.131846812e-05 -0.03741739027) (1.650862869 -0.004485072194 -0.03728978455));
    }
}


// ************************************************************************* //
