/*--------------------------------*- C++ -*----------------------------------*\
  =========                 |
  \\      /  F ield         | OpenFOAM: The Open Source CFD Toolbox
   \\    /   O peration     | Website:  https://openfoam.org
    \\  /    A nd           | Version:  7
     \\/     M anipulation  |
\*---------------------------------------------------------------------------*/
FoamFile
{
    version     2.0;
    format      ascii;
    class       volVectorField;
    location    "0.02";
    object      Uavg;
}
// * * * * * * * * * * * * * * * * * * * * * * * * * * * * * * * * * * * * * //

dimensions      [0 1 -1 0 0 0 0];

internalField   nonuniform List<vector> 
27
(
(1.199155081 5.422903388e-05 -0.007216941749)
(1.19915897 8.035355839e-06 -0.007216918604)
(1.199155151 -3.816011137e-05 -0.007216871947)
(1.199128845 5.423586368e-05 -0.007257101474)
(1.199132728 8.064991179e-06 -0.00725708054)
(1.199128902 -3.810799359e-05 -0.007257045757)
(1.199094932 5.42453904e-05 -0.007312943508)
(1.199098809 8.090719511e-06 -0.007312928229)
(1.199094975 -3.806616744e-05 -0.007312902297)
(1.174105317 5.56970512e-05 -0.007788158948)
(1.174109458 7.70146944e-06 -0.007788135209)
(1.17410541 -4.029742863e-05 -0.007788088829)
(1.174060316 5.569971298e-05 -0.007830024308)
(1.17406445 7.731722572e-06 -0.007830003173)
(1.174060395 -4.024004702e-05 -0.007829967491)
(1.174007169 5.570317853e-05 -0.007888018228)
(1.174011298 7.758010872e-06 -0.007888003582)
(1.174007236 -4.019110564e-05 -0.007887975345)
(1.140688814 5.911384287e-05 -0.008885225409)
(1.140693837 6.990013631e-06 -0.008885205905)
(1.140688903 -4.513664067e-05 -0.008885162991)
(1.140603851 5.910001185e-05 -0.008930886758)
(1.140608868 7.01757611e-06 -0.008930869569)
(1.140603928 -4.50677262e-05 -0.008930833844)
(1.14050901 5.908498965e-05 -0.00899398063)
(1.140514023 7.042880407e-06 -0.00899396981)
(1.140509075 -4.500206875e-05 -0.008993937236)
)
;

boundaryField
{
    inlet
    {
        type            interstitialInletVelocity;
        inletVelocity   uniform (1.23 0 0);
        value           uniform (1.23 0 0);
    }
    outlet
    {
        type            pressureInletOutletVelocity;
        phi             alphaRhoPhi;
        value           nonuniform 0();
    }
    walls
    {
        type            noSlip;
    }
    procBoundary0to1
    {
        type            processor;
        value           nonuniform List<vector> 9((1.120497577 6.634470648e-05 -0.01034750593) (1.120505407 6.068155912e-06 -0.01034748595) (1.120497631 -5.42072985e-05 -0.01034743703) (1.120353139 6.630967458e-05 -0.01039865649) (1.120360967 6.100240039e-06 -0.01039863927) (1.120353182 -5.410868528e-05 -0.01039859466) (1.120193256 6.626584422e-05 -0.0104737744) (1.120201078 6.130286629e-06 -0.01047376935) (1.120193288 -5.400520126e-05 -0.01047372066));
    }
}


// ************************************************************************* //
