/*--------------------------------*- C++ -*----------------------------------*\
  =========                 |
  \\      /  F ield         | OpenFOAM: The Open Source CFD Toolbox
   \\    /   O peration     | Website:  https://openfoam.org
    \\  /    A nd           | Version:  7
     \\/     M anipulation  |
\*---------------------------------------------------------------------------*/
FoamFile
{
    version     2.0;
    format      ascii;
    class       surfaceScalarField;
    location    "0.04";
    object      alphaRhoPhi;
}
// * * * * * * * * * * * * * * * * * * * * * * * * * * * * * * * * * * * * * //

dimensions      [1 0 -1 0 0 0 0];

internalField   nonuniform List<scalar> 
54
(
2.641467687e-08
3.651836833e-08
2.315012208e-05
-2.638409694e-08
3.596668635e-08
2.322988372e-05
3.651262367e-08
2.315015603e-05
2.597606676e-08
-1.660944606e-08
2.324018889e-05
-2.596142231e-08
-1.618976457e-08
2.331713365e-05
-1.660827975e-08
2.324019733e-05
2.657187573e-08
2.31698432e-05
-2.654737925e-08
2.324995351e-05
2.316986762e-05
3.087035379e-08
2.021203281e-08
2.310260492e-05
-3.089923448e-08
2.002550572e-08
2.327520479e-05
2.022204115e-08
2.310260138e-05
3.081595214e-08
-4.209961474e-08
2.327525745e-05
-3.081317603e-08
-4.196440891e-08
2.344432975e-05
-4.209991946e-08
2.327527541e-05
3.11128666e-08
2.310019161e-05
-3.112996101e-08
2.327379862e-05
2.310019935e-05
4.194763783e-08
8.477530969e-09
-4.199401985e-08
8.794700433e-09
8.480652979e-09
4.225069679e-08
-7.377628357e-08
-4.228665916e-08
-7.373855291e-08
-7.378326817e-08
4.229753052e-08
-4.234938857e-08
)
;

boundaryField
{
    inlet
    {
        type            calculated;
        value           nonuniform List<scalar> 9(-2.321116816e-05 -2.32111528e-05 -2.321114073e-05 -2.321116662e-05 -2.321115127e-05 -2.321113917e-05 -2.321116816e-05 -2.32111528e-05 -2.321114074e-05);
    }
    outlet
    {
        type            calculated;
        value           nonuniform 0();
    }
    walls
    {
        type            calculated;
        value           uniform 0;
    }
    procBoundary0to1
    {
        type            processor;
        value           nonuniform List<scalar> 9(2.30555451e-05 2.33537588e-05 2.305548596e-05 2.331865744e-05 2.361484765e-05 2.331865107e-05 2.29874583e-05 2.328809681e-05 2.298740628e-05);
    }
}


// ************************************************************************* //
