/*--------------------------------*- C++ -*----------------------------------*\
  =========                 |
  \\      /  F ield         | OpenFOAM: The Open Source CFD Toolbox
   \\    /   O peration     | Website:  https://openfoam.org
    \\  /    A nd           | Version:  7
     \\/     M anipulation  |
\*---------------------------------------------------------------------------*/
FoamFile
{
    version     2.0;
    format      ascii;
    class       volScalarField;
    location    "0.04";
    object      cpavg;
}
// * * * * * * * * * * * * * * * * * * * * * * * * * * * * * * * * * * * * * //

dimensions      [0 2 -2 -1 0 0 0];

internalField   nonuniform List<scalar> 
27
(
1011.622302
1011.622302
1011.622302
1011.622305
1011.622305
1011.622305
1011.622309
1011.622309
1011.622309
1011.639394
1011.639394
1011.639394
1011.639399
1011.639399
1011.639399
1011.639405
1011.639404
1011.639405
1011.66879
1011.668789
1011.66879
1011.668798
1011.668798
1011.668798
1011.668808
1011.668807
1011.668808
)
;

boundaryField
{
    inlet
    {
        type            calculated;
        value           uniform 1011.338357;
    }
    outlet
    {
        type            calculated;
        value           nonuniform 0();
    }
    walls
    {
        type            calculated;
        value           nonuniform List<scalar> 
36
(
1011.448269
1011.551536
1011.644585
1011.448478
1011.551595
1011.644016
1011.448269
1011.551535
1011.644587
1011.448269
1011.551459
1011.64456
1011.448477
1011.551518
1011.643985
1011.448269
1011.551458
1011.644561
1011.448269
1011.448477
1011.448269
1011.551535
1011.551555
1011.551458
1011.644587
1011.643997
1011.644561
1011.448269
1011.448477
1011.448269
1011.551536
1011.551555
1011.551459
1011.644585
1011.643997
1011.64456
)
;
    }
    procBoundary0to1
    {
        type            processor;
        value           nonuniform List<scalar> 9(1011.702594 1011.702593 1011.702594 1011.702608 1011.702606 1011.702608 1011.702624 1011.702623 1011.702624);
    }
}


// ************************************************************************* //
