/*--------------------------------*- C++ -*----------------------------------*\
  =========                 |
  \\      /  F ield         | OpenFOAM: The Open Source CFD Toolbox
   \\    /   O peration     | Website:  https://openfoam.org
    \\  /    A nd           | Version:  7
     \\/     M anipulation  |
\*---------------------------------------------------------------------------*/
FoamFile
{
    version     2.0;
    format      ascii;
    class       volScalarField;
    location    "0.04";
    object      muavg;
}
// * * * * * * * * * * * * * * * * * * * * * * * * * * * * * * * * * * * * * //

dimensions      [1 -1 -1 0 0 0 0];

internalField   nonuniform List<scalar> 
27
(
1.861056179e-05
1.861056171e-05
1.86105618e-05
1.861056438e-05
1.86105643e-05
1.861056439e-05
1.861056714e-05
1.861056706e-05
1.861056715e-05
1.862559e-05
1.862558977e-05
1.862559002e-05
1.862559402e-05
1.862559379e-05
1.862559404e-05
1.862559852e-05
1.862559828e-05
1.862559854e-05
1.86513934e-05
1.865139283e-05
1.865139344e-05
1.865140044e-05
1.865139987e-05
1.865140047e-05
1.865140863e-05
1.865140805e-05
1.865140866e-05
)
;

boundaryField
{
    inlet
    {
        type            calculated;
        value           uniform 1.835366622e-05;
    }
    outlet
    {
        type            calculated;
        value           nonuniform 0();
    }
    walls
    {
        type            calculated;
        value           nonuniform List<scalar> 
36
(
1.845559298e-05
1.854929633e-05
1.863210907e-05
1.845578402e-05
1.854934923e-05
1.863160708e-05
1.845559298e-05
1.854929507e-05
1.863211021e-05
1.845559281e-05
1.854922679e-05
1.863208719e-05
1.845578385e-05
1.854928008e-05
1.863157942e-05
1.845559281e-05
1.854922599e-05
1.863208773e-05
1.845559298e-05
1.845578392e-05
1.845559281e-05
1.854929507e-05
1.854931366e-05
1.854922599e-05
1.863211021e-05
1.863159027e-05
1.863208773e-05
1.845559298e-05
1.845578392e-05
1.845559281e-05
1.854929633e-05
1.854931362e-05
1.854922679e-05
1.863210907e-05
1.86315903e-05
1.863208719e-05
)
;
    }
    procBoundary0to1
    {
        type            processor;
        value           nonuniform List<scalar> 9(1.868100161e-05 1.868100052e-05 1.868100166e-05 1.868101317e-05 1.868101209e-05 1.868101323e-05 1.868102691e-05 1.868102582e-05 1.868102696e-05);
    }
}


// ************************************************************************* //
