/*--------------------------------*- C++ -*----------------------------------*\
  =========                 |
  \\      /  F ield         | OpenFOAM: The Open Source CFD Toolbox
   \\    /   O peration     | Website:  https://openfoam.org
    \\  /    A nd           | Version:  7
     \\/     M anipulation  |
\*---------------------------------------------------------------------------*/
FoamFile
{
    version     2.0;
    format      ascii;
    class       volScalarField;
    location    "0.04";
    object      p;
}
// * * * * * * * * * * * * * * * * * * * * * * * * * * * * * * * * * * * * * //

dimensions      [1 -1 -2 0 0 0 0];

internalField   nonuniform List<scalar> 
27
(
101329.1481
101329.1413
101329.1481
101329.081
101329.0744
101329.081
101329.0283
101329.0215
101329.0284
101327.6138
101327.6093
101327.6138
101327.5471
101327.5425
101327.5471
101327.4903
101327.4857
101327.4904
101326.4445
101326.4402
101326.4445
101326.3787
101326.3743
101326.3787
101326.323
101326.3184
101326.323
)
;

boundaryField
{
    inlet
    {
        type            zeroGradient;
    }
    outlet
    {
        type            totalPressure;
        rho             rho;
        psi             none;
        gamma           1;
        p0              nonuniform 0();
        value           nonuniform 0();
    }
    walls
    {
        type            zeroGradient;
    }
    procBoundary0to1
    {
        type            processor;
        value           nonuniform List<scalar> 9(101325.8579 101325.8546 101325.8579 101325.7977 101325.7942 101325.7977 101325.7448 101325.7412 101325.7448);
    }
}


// ************************************************************************* //
