/*--------------------------------*- C++ -*----------------------------------*\
  =========                 |
  \\      /  F ield         | OpenFOAM: The Open Source CFD Toolbox
   \\    /   O peration     | Website:  https://openfoam.org
    \\  /    A nd           | Version:  7
     \\/     M anipulation  |
\*---------------------------------------------------------------------------*/
FoamFile
{
    version     2.0;
    format      ascii;
    class       volScalarField;
    location    "0.04";
    object      pDyn;
}
// * * * * * * * * * * * * * * * * * * * * * * * * * * * * * * * * * * * * * //

dimensions      [1 -1 -2 0 0 0 0];

internalField   nonuniform List<scalar> 
27
(
1.715647652
1.729705271
1.715654056
1.730468171
1.744904993
1.730473592
1.717189479
1.73128448
1.717196119
1.89039323
1.915203051
1.890408318
1.916277319
1.941231446
1.916277578
1.892572431
1.917481152
1.892581087
1.834663979
1.872728059
1.834641907
1.870817339
1.909187327
1.870817194
1.831285886
1.869556566
1.831274754
)
;

boundaryField
{
    inlet
    {
        type            calculated;
        value           nonuniform List<scalar> 9(2.217813456 2.22272472 2.217810838 2.222726042 2.22822656 2.222723417 2.217813456 2.22272472 2.217810838);
    }
    outlet
    {
        type            calculated;
        value           nonuniform 0();
    }
    walls
    {
        type            calculated;
        value           uniform 0;
    }
    procBoundary0to1
    {
        type            processor;
        value           nonuniform List<scalar> 9(1.586950726 1.637723199 1.586911461 1.628188665 1.679679651 1.628184647 1.570323584 1.621300076 1.570292564);
    }
}


// ************************************************************************* //
