/*--------------------------------*- C++ -*----------------------------------*\
  =========                 |
  \\      /  F ield         | OpenFOAM: The Open Source CFD Toolbox
   \\    /   O peration     | Website:  https://openfoam.org
    \\  /    A nd           | Version:  7
     \\/     M anipulation  |
\*---------------------------------------------------------------------------*/
FoamFile
{
    version     2.0;
    format      ascii;
    class       surfaceScalarField;
    location    "0.04";
    object      phi;
}
// * * * * * * * * * * * * * * * * * * * * * * * * * * * * * * * * * * * * * //

dimensions      [0 3 -1 0 0 0 0];

internalField   nonuniform List<scalar> 
54
(
3.556512342e-08
4.916890202e-08
3.061039996e-05
-3.552395013e-08
4.84835008e-08
3.075002722e-05
4.916116731e-08
3.061044425e-05
3.501604267e-08
-2.236323092e-08
3.076364859e-05
-3.499630178e-08
-2.182399889e-08
3.090457989e-05
-2.236166057e-08
3.076365972e-05
3.577682023e-08
3.063643927e-05
-3.574383774e-08
3.077655649e-05
3.063647117e-05
4.014770257e-08
2.628625255e-08
2.902481571e-05
-4.018526187e-08
2.607473163e-08
2.926748151e-05
2.62992681e-08
2.902481079e-05
4.012467574e-08
-5.475149982e-08
2.926750069e-05
-4.0121061e-08
-5.464075307e-08
2.951004382e-05
-5.475189535e-08
2.926752315e-05
4.046295043e-08
2.902170377e-05
-4.048518155e-08
2.926562793e-05
2.902171308e-05
5.102174736e-08
1.031138293e-08
-5.107816292e-08
1.070488414e-08
1.031518029e-08
5.142739285e-08
-8.973541819e-08
-5.147116595e-08
-8.975425636e-08
-8.974391331e-08
5.144722324e-08
-5.151029903e-08
)
;

boundaryField
{
    inlet
    {
        type            calculated;
        value           nonuniform List<scalar> 9(-3.102855299e-05 -3.106290004e-05 -3.102855299e-05 -3.106290004e-05 -3.11013218e-05 -3.106290004e-05 -3.102855299e-05 -3.106290004e-05 -3.102855299e-05);
    }
    outlet
    {
        type            calculated;
        value           nonuniform 0();
    }
    walls
    {
        type            calculated;
        value           uniform 0;
    }
    procBoundary0to1
    {
        type            processor;
        value           nonuniform List<scalar> 9(2.700018305e-05 2.736181384e-05 2.700011481e-05 2.732076438e-05 2.768209178e-05 2.732075732e-05 2.692061343e-05 2.72850314e-05 2.692055344e-05);
    }
}


// ************************************************************************* //
