/*--------------------------------*- C++ -*----------------------------------*\
  =========                 |
  \\      /  F ield         | OpenFOAM: The Open Source CFD Toolbox
   \\    /   O peration     | Website:  https://openfoam.org
    \\  /    A nd           | Version:  7
     \\/     M anipulation  |
\*---------------------------------------------------------------------------*/
FoamFile
{
    version     2.0;
    format      ascii;
    class       surfaceScalarField;
    location    "0.04";
    object      rhoPhi;
}
// * * * * * * * * * * * * * * * * * * * * * * * * * * * * * * * * * * * * * //

dimensions      [1 0 -1 0 0 0 0];

internalField   nonuniform List<scalar> 
54
(
4.166984671e-08
5.760868542e-08
3.575663022e-05
-4.162160606e-08
5.680488351e-08
3.591942578e-05
5.759962307e-08
3.575668266e-05
4.102594917e-08
-2.620183752e-08
3.593536025e-05
-4.10028201e-08
-2.556970863e-08
3.609957495e-05
-2.619999762e-08
3.593537329e-05
4.191783204e-08
3.578709057e-05
-4.187918819e-08
3.595045888e-05
3.57871283e-05
4.675527337e-08
3.061251341e-08
3.37151275e-05
-4.679901516e-08
3.036598025e-08
3.399737894e-05
3.062767173e-08
3.371512233e-05
4.672823783e-08
-6.376276117e-08
3.399745587e-05
-4.672402824e-08
-6.363336985e-08
3.427939383e-05
-6.376322269e-08
3.39974821e-05
4.71225757e-08
3.371160559e-05
-4.714846635e-08
3.3995325e-05
3.371161689e-05
5.911504014e-08
1.194702752e-08
-5.918040437e-08
1.240323732e-08
1.195142724e-08
5.958650019e-08
-1.039698107e-07
-5.963721821e-08
-1.039940789e-07
-1.039796538e-07
5.960812918e-08
-5.968121054e-08
)
;

boundaryField
{
    inlet
    {
        type            calculated;
        value           nonuniform List<scalar> 9(-3.659598381e-05 -3.663646946e-05 -3.659594056e-05 -3.663649128e-05 -3.668178278e-05 -3.663644796e-05 -3.659598381e-05 -3.663646947e-05 -3.659594056e-05);
    }
    outlet
    {
        type            calculated;
        value           nonuniform 0();
    }
    walls
    {
        type            calculated;
        value           uniform 0;
    }
    procBoundary0to1
    {
        type            processor;
        value           nonuniform List<scalar> 9(3.121559918e-05 3.16354377e-05 3.121551911e-05 3.158788875e-05 3.200719272e-05 3.158788012e-05 3.112341442e-05 3.154649075e-05 3.112334398e-05);
    }
}


// ************************************************************************* //
