/*--------------------------------*- C++ -*----------------------------------*\
  =========                 |
  \\      /  F ield         | OpenFOAM: The Open Source CFD Toolbox
   \\    /   O peration     | Website:  https://openfoam.org
    \\  /    A nd           | Version:  7
     \\/     M anipulation  |
\*---------------------------------------------------------------------------*/
FoamFile
{
    version     2.0;
    format      ascii;
    class       volScalarField::Internal;
    location    "0.04";
    object      steelCloud:UCoeff;
}
// * * * * * * * * * * * * * * * * * * * * * * * * * * * * * * * * * * * * * //

dimensions      [1 0 0 0 0 0 0];

value           nonuniform List<scalar> 
27
(
3.49660242e-08
3.503307104e-08
3.49660242e-08
3.503307104e-08
3.510789639e-08
3.503307104e-08
3.49660242e-08
3.503307104e-08
3.49660242e-08
3.244571127e-08
3.251513925e-08
3.244571127e-08
3.251513925e-08
3.259527319e-08
3.251513925e-08
3.244571127e-08
3.251513925e-08
3.244571127e-08
2.773968208e-08
2.778727551e-08
2.773968208e-08
2.778727551e-08
2.784071574e-08
2.778727551e-08
2.773968208e-08
2.778727551e-08
2.773968208e-08
)
;


// ************************************************************************* //
