/*--------------------------------*- C++ -*----------------------------------*\
  =========                 |
  \\      /  F ield         | OpenFOAM: The Open Source CFD Toolbox
   \\    /   O peration     | Website:  https://openfoam.org
    \\  /    A nd           | Version:  7
     \\/     M anipulation  |
\*---------------------------------------------------------------------------*/
FoamFile
{
    version     2.0;
    format      ascii;
    class       volScalarField::Internal;
    location    "0.04";
    object      steelCloud:hsCoeff;
}
// * * * * * * * * * * * * * * * * * * * * * * * * * * * * * * * * * * * * * //

dimensions      [1 2 -2 -1 0 0 0];

value           nonuniform List<scalar> 
27
(
6.814469418e-06
6.827536062e-06
6.814469418e-06
6.827536062e-06
6.842118648e-06
6.827536062e-06
6.814469418e-06
6.827536062e-06
6.814469418e-06
6.323289885e-06
6.336820587e-06
6.323289885e-06
6.336820587e-06
6.352437755e-06
6.336820587e-06
6.323289885e-06
6.336820587e-06
6.323289885e-06
5.406139803e-06
5.415415206e-06
5.406139803e-06
5.415415206e-06
5.425830083e-06
5.415415206e-06
5.406139803e-06
5.415415206e-06
5.406139803e-06
)
;


// ************************************************************************* //
