/*--------------------------------*- C++ -*----------------------------------*\
  =========                 |
  \\      /  F ield         | OpenFOAM: The Open Source CFD Toolbox
   \\    /   O peration     | Website:  https://openfoam.org
    \\  /    A nd           | Version:  7
     \\/     M anipulation  |
\*---------------------------------------------------------------------------*/
FoamFile
{
    version     2.0;
    format      ascii;
    class       volVectorField::Internal;
    location    "0.04";
    object      steelCloud:UTrans;
}
// * * * * * * * * * * * * * * * * * * * * * * * * * * * * * * * * * * * * * //

dimensions      [1 1 -1 0 0 0 0];

value           nonuniform List<vector> 
27
(
(-6.377170082e-08 9.008477529e-14 -2.887592044e-10)
(-6.389398211e-08 9.02575115e-14 -2.893128959e-10)
(-6.377170082e-08 9.008477528e-14 -2.887592044e-10)
(-6.389398211e-08 9.02575115e-14 -2.893128959e-10)
(-6.403045e-08 9.045028792e-14 -2.899308246e-10)
(-6.389398211e-08 9.02575115e-14 -2.893128959e-10)
(-6.377170082e-08 9.008477528e-14 -2.887592044e-10)
(-6.389398211e-08 9.02575115e-14 -2.893128959e-10)
(-6.377170082e-08 9.008477528e-14 -2.887592044e-10)
(-5.917510609e-08 8.359156281e-14 -2.679457555e-10)
(-5.930173016e-08 8.377043371e-14 -2.685191112e-10)
(-5.917510608e-08 8.359156281e-14 -2.679457555e-10)
(-5.930173016e-08 8.377043371e-14 -2.685191112e-10)
(-5.944787997e-08 8.397688692e-14 -2.691808797e-10)
(-5.930173016e-08 8.37704337e-14 -2.685191112e-10)
(-5.917510608e-08 8.359156281e-14 -2.679457555e-10)
(-5.930173016e-08 8.37704337e-14 -2.685191112e-10)
(-5.917510609e-08 8.359156281e-14 -2.679457555e-10)
(-5.059216044e-08 7.14671766e-14 -2.290820507e-10)
(-5.067896224e-08 7.158979401e-14 -2.294750905e-10)
(-5.059216044e-08 7.14671766e-14 -2.290820507e-10)
(-5.067896224e-08 7.158979401e-14 -2.294750905e-10)
(-5.077642756e-08 7.172747485e-14 -2.299164149e-10)
(-5.067896224e-08 7.158979401e-14 -2.294750905e-10)
(-5.059216044e-08 7.14671766e-14 -2.290820507e-10)
(-5.067896224e-08 7.158979401e-14 -2.294750905e-10)
(-5.059216044e-08 7.14671766e-14 -2.290820507e-10)
)
;


// ************************************************************************* //
