/*--------------------------------*- C++ -*----------------------------------*\
  =========                 |
  \\      /  F ield         | OpenFOAM: The Open Source CFD Toolbox
   \\    /   O peration     | Website:  https://openfoam.org
    \\  /    A nd           | Version:  7
     \\/     M anipulation  |
\*---------------------------------------------------------------------------*/
FoamFile
{
    version     2.0;
    format      ascii;
    class       volScalarField;
    location    "0.04";
    object      T;
}
// * * * * * * * * * * * * * * * * * * * * * * * * * * * * * * * * * * * * * //

dimensions      [0 0 0 1 0 0 0];

internalField   nonuniform List<scalar> 
27
(
299.9769369
299.9806733
299.9769369
299.9806712
299.9848418
299.9806712
299.9769334
299.9806697
299.9769334
301.7940794
301.7954196
301.7940675
301.7946646
301.7972644
301.794664
301.7926238
301.7939555
301.792616
303.3469678
303.3389377
303.3469699
303.3383514
303.3322
303.3383495
303.3460265
303.3379057
303.3460259
)
;

boundaryField
{
    inlet
    {
        type            fixedValue;
        value           uniform 298;
    }
    outlet
    {
        type            zeroGradient;
    }
    walls
    {
        type            zeroGradient;
    }
    procBoundary0to1
    {
        type            processor;
        value           nonuniform List<scalar> 9(304.6513154 304.6256542 304.6513364 304.6275896 304.6043512 304.6276005 304.6553307 304.6293135 304.6553527);
    }
}


// ************************************************************************* //
