/*--------------------------------*- C++ -*----------------------------------*\
  =========                 |
  \\      /  F ield         | OpenFOAM: The Open Source CFD Toolbox
   \\    /   O peration     | Website:  https://openfoam.org
    \\  /    A nd           | Version:  7
     \\/     M anipulation  |
\*---------------------------------------------------------------------------*/
FoamFile
{
    version     2.0;
    format      ascii;
    class       volScalarField;
    location    "0.04";
    object      Tavg;
}
// * * * * * * * * * * * * * * * * * * * * * * * * * * * * * * * * * * * * * //

dimensions      [0 0 0 1 0 0 0];

internalField   nonuniform List<scalar> 
27
(
302.8466678
302.8466663
302.846668
302.8467171
302.8467156
302.8467173
302.8467696
302.8467681
302.8467698
303.1311409
303.1311364
303.1311413
303.1312173
303.1312129
303.1312177
303.1313029
303.1312984
303.1313033
303.6196751
303.6196643
303.6196758
303.619809
303.6197982
303.6198097
303.6199648
303.6199539
303.6199654
)
;

boundaryField
{
    inlet
    {
        type            fixedValue;
        value           uniform 298;
    }
    outlet
    {
        type            zeroGradient;
    }
    walls
    {
        type            zeroGradient;
    }
    procBoundary0to1
    {
        type            processor;
        value           nonuniform List<scalar> 9(304.1803906 304.18037 304.1803917 304.1806107 304.1805901 304.1806117 304.1808721 304.1808513 304.1808731);
    }
}


// ************************************************************************* //
