/*--------------------------------*- C++ -*----------------------------------*\
  =========                 |
  \\      /  F ield         | OpenFOAM: The Open Source CFD Toolbox
   \\    /   O peration     | Website:  https://openfoam.org
    \\  /    A nd           | Version:  7
     \\/     M anipulation  |
\*---------------------------------------------------------------------------*/
FoamFile
{
    version     2.0;
    format      ascii;
    class       volVectorField;
    location    "0.04";
    object      Uavg;
}
// * * * * * * * * * * * * * * * * * * * * * * * * * * * * * * * * * * * * * //

dimensions      [0 1 -1 0 0 0 0];

internalField   nonuniform List<vector> 
27
(
(1.246676937 5.101810744e-05 -0.01008838361)
(1.246681065 6.939786787e-07 -0.01008839168)
(1.24667696 -4.962723197e-05 -0.01008838809)
(1.246643454 5.098353902e-05 -0.01013414882)
(1.246647586 6.92013065e-07 -0.01013415415)
(1.246643477 -4.959657272e-05 -0.01013415378)
(1.246601724 5.095259475e-05 -0.01019665728)
(1.246605856 6.899748193e-07 -0.01019666225)
(1.246601747 -4.956968649e-05 -0.01019666265)
(1.219061756 5.342596279e-05 -0.01109341579)
(1.219066187 7.063955707e-07 -0.01109341988)
(1.21906175 -5.200983678e-05 -0.01109341996)
(1.218999233 5.337748407e-05 -0.01114148884)
(1.219003668 7.049397052e-07 -0.01114149118)
(1.218999226 -5.196425908e-05 -0.01114149391)
(1.218927865 5.333052703e-05 -0.01120759177)
(1.218932302 7.032315611e-07 -0.01120759515)
(1.218927859 -5.192068926e-05 -0.01120759765)
(1.182283398 5.935796252e-05 -0.01300044928)
(1.182288929 7.575383853e-07 -0.01300044316)
(1.182283331 -5.783919643e-05 -0.01300045302)
(1.182158709 5.92752206e-05 -0.01305389785)
(1.182164249 7.571646007e-07 -0.01305389155)
(1.182158644 -5.775717693e-05 -0.01305390285)
(1.182023042 5.919015817e-05 -0.01312882784)
(1.182028591 7.564366189e-07 -0.01312882524)
(1.182022979 -5.767354443e-05 -0.01312883403)
)
;

boundaryField
{
    inlet
    {
        type            interstitialInletVelocity;
        inletVelocity   uniform (1.23 0 0);
        value           uniform (1.23 0 0);
    }
    outlet
    {
        type            pressureInletOutletVelocity;
        phi             alphaRhoPhi;
        value           nonuniform 0();
    }
    walls
    {
        type            noSlip;
    }
    procBoundary0to1
    {
        type            processor;
        value           nonuniform List<vector> 9((1.159682997 7.055979206e-05 -0.01549558851) (1.159691897 8.575508301e-07 -0.01549556235) (1.159682851 -6.883973897e-05 -0.01549559028) (1.159465145 7.041610721e-05 -0.0155566217) (1.159474068 8.594443347e-07 -0.01555659623) (1.159465005 -6.869233888e-05 -0.01555662572) (1.159229765 7.026286716e-05 -0.01565012841) (1.15923871 8.603562878e-07 -0.01565011387) (1.159229628 -6.853727659e-05 -0.01565013484));
    }
}


// ************************************************************************* //
