/*--------------------------------*- C++ -*----------------------------------*\
  =========                 |
  \\      /  F ield         | OpenFOAM: The Open Source CFD Toolbox
   \\    /   O peration     | Website:  https://openfoam.org
    \\  /    A nd           | Version:  7
     \\/     M anipulation  |
\*---------------------------------------------------------------------------*/
FoamFile
{
    version     2.0;
    format      ascii;
    class       surfaceScalarField;
    location    "0.085";
    object      alphaRhoPhi;
}
// * * * * * * * * * * * * * * * * * * * * * * * * * * * * * * * * * * * * * //

dimensions      [1 0 -1 0 0 0 0];

internalField   nonuniform List<scalar> 
54
(
2.655676238e-08
3.667010099e-08
2.314793181e-05
-2.655632406e-08
3.613661268e-08
2.322813732e-05
3.667067083e-08
2.314793111e-05
2.614116878e-08
-1.6743455e-08
2.323841983e-05
-2.613994633e-08
-1.63262637e-08
2.3315885e-05
-1.674374736e-08
2.323841982e-05
2.672699741e-08
2.316766077e-05
-2.6726171e-08
2.324825888e-05
2.316765994e-05
3.113211237e-08
2.061258984e-08
2.309617354e-05
-3.113050679e-08
2.041561953e-08
2.326996874e-05
2.061306096e-08
2.309617393e-05
3.106323768e-08
-4.211576836e-08
2.327006987e-05
-3.106137318e-08
-4.198671639e-08
2.344039928e-05
-4.211603445e-08
2.327006841e-05
3.137182814e-08
2.309416041e-05
-3.136989657e-08
2.326899506e-05
2.309415943e-05
4.230262227e-08
9.31665688e-09
-4.230160515e-08
9.663309173e-09
9.316110445e-09
4.259890546e-08
-7.34116586e-08
-4.259722376e-08
-7.334249095e-08
-7.341212801e-08
4.266061605e-08
-4.266041556e-08
)
;

boundaryField
{
    inlet
    {
        type            calculated;
        value           nonuniform List<scalar> 9(-2.321116549e-05 -2.32111501e-05 -2.321113803e-05 -2.321116394e-05 -2.321114857e-05 -2.321113646e-05 -2.321116549e-05 -2.32111501e-05 -2.321113803e-05);
    }
    outlet
    {
        type            calculated;
        value           nonuniform 0();
    }
    walls
    {
        type            calculated;
        value           uniform 0;
    }
    procBoundary0to1
    {
        type            processor;
        value           nonuniform List<scalar> 9(2.304453187e-05 2.334488826e-05 2.304452907e-05 2.331017888e-05 2.360857051e-05 2.331017883e-05 2.297806174e-05 2.328095324e-05 2.297806226e-05);
    }
}


// ************************************************************************* //
