/*--------------------------------*- C++ -*----------------------------------*\
  =========                 |
  \\      /  F ield         | OpenFOAM: The Open Source CFD Toolbox
   \\    /   O peration     | Website:  https://openfoam.org
    \\  /    A nd           | Version:  7
     \\/     M anipulation  |
\*---------------------------------------------------------------------------*/
FoamFile
{
    version     2.0;
    format      ascii;
    class       volScalarField;
    location    "0.085";
    object      muavg;
}
// * * * * * * * * * * * * * * * * * * * * * * * * * * * * * * * * * * * * * //

dimensions      [1 -1 -1 0 0 0 0];

internalField   nonuniform List<scalar> 
27
(
1.86118154e-05
1.861181536e-05
1.86118154e-05
1.861181629e-05
1.861181625e-05
1.861181629e-05
1.861181725e-05
1.861181721e-05
1.861181724e-05
1.862521293e-05
1.862521278e-05
1.862521293e-05
1.862521445e-05
1.862521431e-05
1.862521445e-05
1.862521626e-05
1.862521612e-05
1.862521626e-05
1.864789156e-05
1.86478912e-05
1.864789156e-05
1.864789449e-05
1.864789413e-05
1.864789449e-05
1.864789813e-05
1.864789776e-05
1.864789813e-05
)
;

boundaryField
{
    inlet
    {
        type            calculated;
        value           uniform 1.835366622e-05;
    }
    outlet
    {
        type            calculated;
        value           nonuniform 0();
    }
    walls
    {
        type            calculated;
        value           nonuniform List<scalar> 
36
(
1.846087555e-05
1.85606174e-05
1.864587333e-05
1.846107736e-05
1.856068506e-05
1.864545459e-05
1.846087555e-05
1.85606174e-05
1.864587332e-05
1.846087534e-05
1.856053302e-05
1.864579789e-05
1.846107714e-05
1.85605994e-05
1.864537406e-05
1.846087534e-05
1.856053302e-05
1.864579789e-05
1.846087555e-05
1.846107724e-05
1.846087534e-05
1.85606174e-05
1.856064119e-05
1.856053302e-05
1.864587332e-05
1.864541107e-05
1.864579789e-05
1.846087555e-05
1.846107724e-05
1.846087534e-05
1.85606174e-05
1.856064119e-05
1.856053302e-05
1.864587333e-05
1.864541107e-05
1.864579789e-05
)
;
    }
    procBoundary0to1
    {
        type            processor;
        value           nonuniform List<scalar> 9(1.867338866e-05 1.867338799e-05 1.867338866e-05 1.867339375e-05 1.867339308e-05 1.867339375e-05 1.867340014e-05 1.867339946e-05 1.867340014e-05);
    }
}


// ************************************************************************* //
