/*--------------------------------*- C++ -*----------------------------------*\
  =========                 |
  \\      /  F ield         | OpenFOAM: The Open Source CFD Toolbox
   \\    /   O peration     | Website:  https://openfoam.org
    \\  /    A nd           | Version:  7
     \\/     M anipulation  |
\*---------------------------------------------------------------------------*/
FoamFile
{
    version     2.0;
    format      ascii;
    class       volScalarField;
    location    "0.085";
    object      pDyn;
}
// * * * * * * * * * * * * * * * * * * * * * * * * * * * * * * * * * * * * * //

dimensions      [1 -1 -2 0 0 0 0];

internalField   nonuniform List<scalar> 
27
(
1.71851762
1.73266513
1.718517582
1.73343056
1.747968697
1.733430533
1.720067677
1.734256154
1.720067622
1.891822003
1.91685616
1.891821907
1.917963293
1.943187828
1.917963274
1.89408753
1.919246808
1.894087363
1.833562692
1.872048417
1.833562695
1.870256174
1.909060958
1.870256006
1.830537284
1.869233231
1.830537255
)
;

boundaryField
{
    inlet
    {
        type            calculated;
        value           nonuniform List<scalar> 9(2.217813096 2.222724356 2.217810473 2.222725681 2.228226193 2.22272305 2.217813096 2.222724356 2.217810473);
    }
    outlet
    {
        type            calculated;
        value           nonuniform 0();
    }
    walls
    {
        type            calculated;
        value           uniform 0;
    }
    procBoundary0to1
    {
        type            processor;
        value           nonuniform List<scalar> 9(1.585125893 1.636462373 1.585125663 1.62714125 1.67919441 1.627141152 1.569209304 1.620778165 1.569209317);
    }
}


// ************************************************************************* //
