/*--------------------------------*- C++ -*----------------------------------*\
  =========                 |
  \\      /  F ield         | OpenFOAM: The Open Source CFD Toolbox
   \\    /   O peration     | Website:  https://openfoam.org
    \\  /    A nd           | Version:  7
     \\/     M anipulation  |
\*---------------------------------------------------------------------------*/
FoamFile
{
    version     2.0;
    format      ascii;
    class       surfaceScalarField;
    location    "0.085";
    object      phi;
}
// * * * * * * * * * * * * * * * * * * * * * * * * * * * * * * * * * * * * * //

dimensions      [0 3 -1 0 0 0 0];

internalField   nonuniform List<scalar> 
54
(
3.576119845e-08
4.937978227e-08
3.061481368e-05
-3.576060821e-08
4.871907148e-08
3.075505888e-05
4.938054961e-08
3.061481276e-05
3.524331006e-08
-2.254666946e-08
3.076864979e-05
-3.524166195e-08
-2.201094166e-08
3.091030266e-05
-2.254706315e-08
3.076864979e-05
3.599047816e-08
3.064086263e-05
-3.598936531e-08
3.078165528e-05
3.064086154e-05
4.050209253e-08
2.681643064e-08
2.902953581e-05
-4.05000037e-08
2.659185057e-08
2.927380726e-05
2.681704355e-08
2.902953631e-05
4.04605941e-08
-5.479138223e-08
2.927387247e-05
-4.045816554e-08
-5.468862583e-08
2.951810355e-05
-5.479172841e-08
2.927387063e-05
4.08137894e-08
2.902689569e-05
-4.081127649e-08
2.927246586e-05
2.902689447e-05
5.148119876e-08
1.133811886e-08
-5.147996095e-08
1.176847938e-08
1.133745386e-08
5.187910304e-08
-8.93398418e-08
-5.187705499e-08
-8.932012091e-08
-8.934041308e-08
5.191667777e-08
-5.19164338e-08
)
;

boundaryField
{
    inlet
    {
        type            calculated;
        value           nonuniform List<scalar> 9(-3.102855299e-05 -3.106290004e-05 -3.102855299e-05 -3.106290004e-05 -3.11013218e-05 -3.106290004e-05 -3.102855299e-05 -3.106290004e-05 -3.102855299e-05);
    }
    outlet
    {
        type            calculated;
        value           nonuniform 0();
    }
    walls
    {
        type            calculated;
        value           uniform 0;
    }
    procBoundary0to1
    {
        type            processor;
        value           nonuniform List<scalar> 9(2.70013602e-05 2.736581619e-05 2.700135687e-05 2.732515894e-05 2.768938598e-05 2.732515885e-05 2.692354936e-05 2.729092364e-05 2.692354994e-05);
    }
}


// ************************************************************************* //
