/*--------------------------------*- C++ -*----------------------------------*\
  =========                 |
  \\      /  F ield         | OpenFOAM: The Open Source CFD Toolbox
   \\    /   O peration     | Website:  https://openfoam.org
    \\  /    A nd           | Version:  7
     \\/     M anipulation  |
\*---------------------------------------------------------------------------*/
FoamFile
{
    version     2.0;
    format      ascii;
    class       volScalarField::Internal;
    location    "0.085";
    object      steelCloud:UCoeff;
}
// * * * * * * * * * * * * * * * * * * * * * * * * * * * * * * * * * * * * * //

dimensions      [1 0 0 0 0 0 0];

value           nonuniform List<scalar> 
27
(
3.49128398e-08
3.497978465e-08
3.49128398e-08
3.497978465e-08
3.505449619e-08
3.497978465e-08
3.49128398e-08
3.497978465e-08
3.49128398e-08
3.239636033e-08
3.246568271e-08
3.239636033e-08
3.246568271e-08
3.254569477e-08
3.246568271e-08
3.239636033e-08
3.246568271e-08
3.239636033e-08
2.769748916e-08
2.77450102e-08
2.769748916e-08
2.77450102e-08
2.779836915e-08
2.77450102e-08
2.769748916e-08
2.77450102e-08
2.769748916e-08
)
;


// ************************************************************************* //
