/*--------------------------------*- C++ -*----------------------------------*\
  =========                 |
  \\      /  F ield         | OpenFOAM: The Open Source CFD Toolbox
   \\    /   O peration     | Website:  https://openfoam.org
    \\  /    A nd           | Version:  7
     \\/     M anipulation  |
\*---------------------------------------------------------------------------*/
FoamFile
{
    version     2.0;
    format      ascii;
    class       volScalarField::Internal;
    location    "0.085";
    object      steelCloud:hsTrans;
}
// * * * * * * * * * * * * * * * * * * * * * * * * * * * * * * * * * * * * * //

dimensions      [1 2 -2 0 0 0 0];

value           nonuniform List<scalar> 
27
(
0.0002374003017
0.0002378555132
0.0002374003017
0.0002378555132
0.0002383635367
0.0002378555132
0.0002374003017
0.0002378555132
0.0002374003017
0.0002202887465
0.0002207601248
0.0002202887465
0.0002207601248
0.0002213041907
0.0002207601248
0.0002202887465
0.0002207601248
0.0002202887465
0.0001883373659
0.0001886604994
0.0001883373659
0.0001886604994
0.0001890233295
0.0001886604994
0.0001883373659
0.0001886604994
0.0001883373659
)
;


// ************************************************************************* //
