/*--------------------------------*- C++ -*----------------------------------*\
  =========                 |
  \\      /  F ield         | OpenFOAM: The Open Source CFD Toolbox
   \\    /   O peration     | Website:  https://openfoam.org
    \\  /    A nd           | Version:  7
     \\/     M anipulation  |
\*---------------------------------------------------------------------------*/
FoamFile
{
    version     2.0;
    format      ascii;
    class       volScalarField;
    location    "0.085";
    object      T;
}
// * * * * * * * * * * * * * * * * * * * * * * * * * * * * * * * * * * * * * //

dimensions      [0 0 0 1 0 0 0];

internalField   nonuniform List<scalar> 
27
(
300.0168785
300.0206804
300.0168785
300.020678
300.0249213
300.020678
300.0168746
300.0206762
300.0168746
301.89819
301.8994669
301.89819
301.8986385
301.9011849
301.8986385
301.8965962
301.897849
301.8965963
303.5100723
303.5021427
303.5100723
303.501319
303.4953135
303.5013191
303.5086442
303.5006183
303.5086443
)
;

boundaryField
{
    inlet
    {
        type            fixedValue;
        value           uniform 298;
    }
    outlet
    {
        type            zeroGradient;
    }
    walls
    {
        type            zeroGradient;
    }
    procBoundary0to1
    {
        type            processor;
        value           nonuniform List<scalar> 9(304.8052374 304.7823755 304.8052366 304.7835305 304.7630696 304.7835296 304.8076146 304.7844269 304.8076137);
    }
}


// ************************************************************************* //
