/*--------------------------------*- C++ -*----------------------------------*\
  =========                 |
  \\      /  F ield         | OpenFOAM: The Open Source CFD Toolbox
   \\    /   O peration     | Website:  https://openfoam.org
    \\  /    A nd           | Version:  7
     \\/     M anipulation  |
\*---------------------------------------------------------------------------*/
FoamFile
{
    version     2.0;
    format      ascii;
    class       volVectorField;
    location    "0.085";
    object      U;
}
// * * * * * * * * * * * * * * * * * * * * * * * * * * * * * * * * * * * * * //

dimensions      [0 1 -1 0 0 0 0];

internalField   nonuniform List<vector> 
27
(
(1.712887248 0.001660265206 -0.007630050164)
(1.719935349 2.165126894e-08 -0.007674543168)
(1.712887228 -0.001660268189 -0.007630017134)
(1.720328561 0.001636977418 0.003479974292)
(1.727540966 5.596263289e-08 0.00350106188)
(1.720328547 -0.001636947284 0.003479986411)
(1.713641437 0.001654295415 -0.01113218165)
(1.720706956 3.851721767e-08 -0.01113674122)
(1.713641408 -0.001654281984 -0.01113220222)
(1.802735229 0.002978816057 -0.01507870661)
(1.814631293 9.094488749e-08 -0.01513423619)
(1.802735178 -0.00297876628 -0.01507870215)
(1.815195452 0.002957427167 0.008240515513)
(1.827104069 9.557080717e-08 0.008301385121)
(1.815195441 -0.002957372468 0.008240516365)
(1.803747106 0.002950202937 -0.02139832518)
(1.815695544 1.056489338e-07 -0.02144143457)
(1.803747022 -0.002950137517 -0.02139832211)
(1.779396732 0.00418446898 -0.02278558844)
(1.797959759 5.037777841e-08 -0.02283081884)
(1.779396721 -0.004184455311 -0.02278555404)
(1.797187757 0.004174479215 0.01332840619)
(1.81572514 9.480860778e-08 0.01346216286)
(1.797187668 -0.004174421235 0.0133283618)
(1.777787997 0.00411617215 -0.03173870235)
(1.796467129 1.944489389e-08 -0.03183643217)
(1.77778797 -0.004116189456 -0.03173878156)
)
;

boundaryField
{
    inlet
    {
        type            interstitialInletVelocity;
        inletVelocity   uniform (1.23 0 0);
        value           nonuniform List<vector> 9((1.939284562 0 0) (1.941431252 0 0) (1.939284562 0 0) (1.941431252 0 0) (1.943832612 0 0) (1.941431252 0 0) (1.939284562 0 0) (1.941431252 0 0) (1.939284562 0 0));
    }
    outlet
    {
        type            pressureInletOutletVelocity;
        phi             alphaRhoPhi;
        value           nonuniform 0();
    }
    walls
    {
        type            noSlip;
    }
    procBoundary0to1
    {
        type            processor;
        value           nonuniform List<vector> 9((1.657817584 0.005068567755 -0.03189987802) (1.684405626 8.766105152e-08 -0.03192453179) (1.657817435 -0.005068480802 -0.03189994465) (1.679813412 0.005051670838 0.01700000246) (1.706424271 2.905844994e-08 0.01725601399) (1.679813338 -0.005051643238 0.01699996236) (1.6492323 0.004938493777 -0.0427670493) (1.676073692 6.900317658e-08 -0.0428948746) (1.649232282 -0.004938425723 -0.04276702046));
    }
}


// ************************************************************************* //
