/*--------------------------------*- C++ -*----------------------------------*\
  =========                 |
  \\      /  F ield         | OpenFOAM: The Open Source CFD Toolbox
   \\    /   O peration     | Website:  https://openfoam.org
    \\  /    A nd           | Version:  7
     \\/     M anipulation  |
\*---------------------------------------------------------------------------*/
FoamFile
{
    version     2.0;
    format      ascii;
    class       volVectorField;
    location    "0.085";
    object      Uavg;
}
// * * * * * * * * * * * * * * * * * * * * * * * * * * * * * * * * * * * * * //

dimensions      [0 1 -1 0 0 0 0];

internalField   nonuniform List<vector> 
27
(
(1.247421869 5.110319004e-05 -0.01021387789)
(1.247426023 2.629895721e-08 -0.01021388255)
(1.247421869 -5.105062296e-05 -0.01021387774)
(1.247388781 5.106939574e-05 -0.01026037005)
(1.247392938 2.64175821e-08 -0.01026037187)
(1.24738878 -5.101659271e-05 -0.01026036996)
(1.24734738 5.103904696e-05 -0.01032373265)
(1.247351538 2.652094012e-08 -0.01032373403)
(1.247347379 -5.098603763e-05 -0.01032373262)
(1.219706471 5.367691165e-05 -0.01124699889)
(1.219710951 2.666898701e-08 -0.01124699838)
(1.21970647 -5.362359357e-05 -0.01124699875)
(1.21964446 5.362603398e-05 -0.01129595264)
(1.219648945 2.679547961e-08 -0.01129594998)
(1.21964446 -5.357246406e-05 -0.01129595255)
(1.219573529 5.357683384e-05 -0.01136316741)
(1.219578017 2.690611034e-08 -0.0113631654)
(1.219573529 -5.352304293e-05 -0.01136316739)
(1.182760324 5.996339906e-05 -0.01320682458)
(1.182765958 2.748827713e-08 -0.01320680967)
(1.182760323 -5.990840905e-05 -0.01320682443)
(1.182636368 5.987089633e-05 -0.01326147002)
(1.182642011 2.763863767e-08 -0.01326145425)
(1.182636367 -5.981560692e-05 -0.01326146994)
(1.182501331 5.977653467e-05 -0.01333813482)
(1.182506984 2.777183699e-08 -0.01333812197)
(1.18250133 -5.972097904e-05 -0.0133381348)
)
;

boundaryField
{
    inlet
    {
        type            interstitialInletVelocity;
        inletVelocity   uniform (1.23 0 0);
        value           uniform (1.23 0 0);
    }
    outlet
    {
        type            pressureInletOutletVelocity;
        phi             alphaRhoPhi;
        value           nonuniform 0();
    }
    walls
    {
        type            noSlip;
    }
    procBoundary0to1
    {
        type            processor;
        value           nonuniform List<vector> 9((1.159977774 7.172269128e-05 -0.01576995455) (1.159986875 2.8843592e-08 -0.01576991136) (1.159977773 -7.166493126e-05 -0.01576995439) (1.159760897 7.155538097e-05 -0.01583262097) (1.15977002 2.903479529e-08 -0.01583257709) (1.159760897 -7.149724027e-05 -0.01583262087) (1.159526322 7.138005116e-05 -0.01592896697) (1.159535468 2.921041545e-08 -0.01592893207) (1.159526321 -7.132156036e-05 -0.01592896694));
    }
}


// ************************************************************************* //
