/*--------------------------------*- C++ -*----------------------------------*\
  =========                 |
  \\      /  F ield         | OpenFOAM: The Open Source CFD Toolbox
   \\    /   O peration     | Website:  https://openfoam.org
    \\  /    A nd           | Version:  7
     \\/     M anipulation  |
\*---------------------------------------------------------------------------*/
FoamFile
{
    version     2.0;
    format      ascii;
    class       volScalarField;
    location    "0.065";
    object      kappaavg;
}
// * * * * * * * * * * * * * * * * * * * * * * * * * * * * * * * * * * * * * //

dimensions      [1 1 -3 -1 0 0 0];

internalField   nonuniform List<scalar> 
54
(
0.02726746163
0.02726746158
0.02726746163
0.02726746302
0.02726746297
0.02726746302
0.02726746451
0.02726746445
0.02726746451
0.02728739338
0.02728739317
0.02728739338
0.02728739575
0.02728739554
0.02728739575
0.02728739854
0.02728739833
0.02728739854
0.02732112816
0.02732112762
0.02732112816
0.02732113269
0.02732113215
0.02732113269
0.02732113828
0.02732113774
0.02732113828
0.02735904916
0.02735904816
0.02735904916
0.02735905702
0.02735905602
0.02735905702
0.02735906682
0.02735906582
0.02735906683
0.0273911657
0.02739116423
0.02739116571
0.02739117735
0.02739117587
0.02739117735
0.02739119185
0.02739119036
0.02739119186
0.02740946182
0.02740946001
0.02740946182
0.02740947614
0.02740947433
0.02740947614
0.02740949394
0.02740949212
0.02740949394
)
;

boundaryField
{
    inlet
    {
        type            calculated;
        value           uniform 0.02688265352;
    }
    outlet
    {
        type            calculated;
        value           nonuniform List<scalar> 9(0.02756805035 0.02756475028 0.02757090023 0.02756316156 0.02756008434 0.02756580484 0.02756805118 0.02756475031 0.02757090083);
    }
    walls
    {
        type            calculated;
        value           nonuniform List<scalar> 
72
(
0.02704264385
0.0271914537
0.02731843698
0.02741990101
0.02749991708
0.02756805035
0.02704294521
0.02719155687
0.02731782099
0.02741812348
0.02749669902
0.02756316156
0.02704264385
0.02719145366
0.02731843688
0.02741990093
0.02749991727
0.02756805118
0.02704264354
0.02719132794
0.02731832527
0.02742009054
0.02750091678
0.02757090023
0.02704294488
0.02719142926
0.02731770186
0.02741828778
0.02749762338
0.02756580484
0.02704264354
0.02719132792
0.02731832519
0.02742009046
0.0275009169
0.02757090083
0.02704264385
0.02704294502
0.02704264354
0.02719145366
0.02719149146
0.02719132792
0.02731843688
0.02731775623
0.02731832519
0.02741990093
0.0274182147
0.02742009046
0.02749991727
0.02749724082
0.0275009169
0.02756805118
0.02756475031
0.02757090083
0.02704264385
0.02704294502
0.02704264354
0.0271914537
0.02719149147
0.02719132794
0.02731843698
0.02731775627
0.02731832527
0.02741990101
0.02741821477
0.02742009054
0.02749991708
0.02749724087
0.02750091678
0.02756805035
0.02756475028
0.02757090023
)
;
    }
}


// ************************************************************************* //
