/*--------------------------------*- C++ -*----------------------------------*\
  =========                 |
  \\      /  F ield         | OpenFOAM: The Open Source CFD Toolbox
   \\    /   O peration     | Website:  https://openfoam.org
    \\  /    A nd           | Version:  7
     \\/     M anipulation  |
\*---------------------------------------------------------------------------*/
FoamFile
{
    version     2.0;
    format      ascii;
    class       volScalarField::Internal;
    location    "0.065";
    object      steelCloud:hsCoeff;
}
// * * * * * * * * * * * * * * * * * * * * * * * * * * * * * * * * * * * * * //

dimensions      [1 2 -2 -1 0 0 0];

value           nonuniform List<scalar> 
54
(
6.813290694e-06
6.826355078e-06
6.813290694e-06
6.826355078e-06
6.840935142e-06
6.826355078e-06
6.813290694e-06
6.826355078e-06
6.813290694e-06
6.322196123e-06
6.335724484e-06
6.322196123e-06
6.335724484e-06
6.351338951e-06
6.335724484e-06
6.322196123e-06
6.335724484e-06
6.322196123e-06
5.405204683e-06
5.414478482e-06
5.405204683e-06
5.414478482e-06
5.424891558e-06
5.414478482e-06
5.405204683e-06
5.414478482e-06
5.405204683e-06
4.334130423e-06
4.338841844e-06
4.334130423e-06
4.338841844e-06
4.343964162e-06
4.338841844e-06
4.334130423e-06
4.338841844e-06
4.334130423e-06
3.431124203e-06
3.433131236e-06
3.431124203e-06
3.433131236e-06
3.435256135e-06
3.433131236e-06
3.431124203e-06
3.433131236e-06
3.431124203e-06
2.926044412e-06
2.926965248e-06
2.926044412e-06
2.926965248e-06
2.927920578e-06
2.926965248e-06
2.926044412e-06
2.926965248e-06
2.926044412e-06
)
;


// ************************************************************************* //
