/*--------------------------------*- C++ -*----------------------------------*\
  =========                 |
  \\      /  F ield         | OpenFOAM: The Open Source CFD Toolbox
   \\    /   O peration     | Website:  https://openfoam.org
    \\  /    A nd           | Version:  7
     \\/     M anipulation  |
\*---------------------------------------------------------------------------*/
FoamFile
{
    version     2.0;
    format      ascii;
    class       volScalarField;
    location    "0.065";
    object      Tavg;
}
// * * * * * * * * * * * * * * * * * * * * * * * * * * * * * * * * * * * * * //

dimensions      [0 0 0 1 0 0 0];

internalField   nonuniform List<scalar> 
54
(
302.8654955
302.8654948
302.8654955
302.8655132
302.8655125
302.8655132
302.8655321
302.8655314
302.8655321
303.1181101
303.1181074
303.1181101
303.1181402
303.1181376
303.1181402
303.1181757
303.118173
303.1181757
303.5457166
303.5457098
303.5457166
303.5457743
303.5457674
303.5457743
303.5458454
303.5458385
303.5458454
304.026463
304.0264504
304.026463
304.026563
304.0265503
304.026563
304.0266877
304.0266749
304.0266877
304.4336866
304.4336679
304.4336867
304.4338347
304.433816
304.4338348
304.4340192
304.4340002
304.4340192
304.6656998
304.6656768
304.6656998
304.6658819
304.6658589
304.6658819
304.6661082
304.666085
304.6661083
)
;

boundaryField
{
    inlet
    {
        type            fixedValue;
        value           uniform 298;
    }
    outlet
    {
        type            zeroGradient;
    }
    walls
    {
        type            zeroGradient;
    }
}


// ************************************************************************* //
