/*--------------------------------*- C++ -*----------------------------------*\
  =========                 |
  \\      /  F ield         | OpenFOAM: The Open Source CFD Toolbox
   \\    /   O peration     | Website:  https://openfoam.org
    \\  /    A nd           | Version:  7
     \\/     M anipulation  |
\*---------------------------------------------------------------------------*/
FoamFile
{
    version     2.0;
    format      ascii;
    class       surfaceScalarField;
    location    "0.03";
    object      alphaRhoPhi;
}
// * * * * * * * * * * * * * * * * * * * * * * * * * * * * * * * * * * * * * //

dimensions      [1 0 -1 0 0 0 0];

internalField   nonuniform List<scalar> 
117
(
2.617252581e-08
3.58049607e-08
2.315371598e-05
-2.601381698e-08
3.518037929e-08
2.323271514e-05
3.576789295e-08
2.315391248e-05
2.564413434e-08
-1.671153859e-08
2.324256693e-05
-2.55761448e-08
-1.628881033e-08
2.33183989e-05
-1.670176461e-08
2.32425869e-05
2.627648803e-08
2.317267786e-05
-2.615346984e-08
2.325182069e-05
2.317281027e-05
3.034716898e-08
1.87916686e-08
2.310581189e-05
-3.074236534e-08
1.878796542e-08
2.327633185e-05
1.889280743e-08
2.310550987e-05
3.049845192e-08
-4.285182183e-08
2.327501667e-05
-3.057957372e-08
-4.265814061e-08
2.344231227e-05
-4.285937843e-08
2.327506258e-05
3.068123713e-08
2.31003597e-05
-3.09690492e-08
2.327210772e-05
2.310019701e-05
4.164761763e-08
7.306948557e-09
2.304367252e-05
-4.164010818e-08
7.380106599e-09
2.333930098e-05
7.224952168e-09
2.304345729e-05
4.183985717e-08
-7.466642709e-08
2.330217915e-05
-4.207405133e-08
-7.481262569e-08
2.3595699e-05
-7.470137517e-08
2.330194321e-05
4.190700731e-08
2.297053795e-05
-4.203534021e-08
2.326823855e-05
2.297021105e-05
4.794476708e-08
-3.186743884e-08
2.298847889e-05
-4.836573457e-08
-3.084138452e-08
2.34278346e-05
-3.15988246e-08
2.298757435e-05
4.875094566e-08
-1.230640639e-07
2.330593064e-05
-4.863562567e-08
-1.228060233e-07
2.37468601e-05
-1.230408143e-07
2.330605404e-05
4.872305435e-08
2.275949197e-05
-4.881939999e-08
2.320421164e-05
2.275909117e-05
4.51693548e-08
-1.270221665e-07
2.299859479e-05
-4.483871856e-08
-1.256051875e-07
2.357239011e-05
-1.27209547e-07
2.299820576e-05
4.54561492e-08
-2.112172174e-07
2.327351081e-05
-4.549154434e-08
-2.105655299e-07
2.385230348e-05
-2.112866678e-07
2.327348278e-05
4.550005113e-08
2.243083013e-05
-4.545311349e-08
2.301333192e-05
2.243040995e-05
2.985640715e-08
-3.521275713e-07
-2.985360352e-08
-3.480384385e-07
-3.51987958e-07
3.016142173e-08
-4.142968965e-07
-2.989965677e-08
-4.110042414e-07
-4.143023334e-07
2.985166934e-08
-2.970299479e-08
)
;

boundaryField
{
    inlet
    {
        type            calculated;
        value           nonuniform List<scalar> 9(-2.321117274e-05 -2.321115743e-05 -2.321114538e-05 -2.321117122e-05 -2.321115594e-05 -2.321114384e-05 -2.321117275e-05 -2.321115744e-05 -2.321114538e-05);
    }
    outlet
    {
        type            calculated;
        value           nonuniform List<scalar> 9(2.321866573e-05 2.320386462e-05 2.188440486e-05 2.387852185e-05 2.387428126e-05 2.256014382e-05 2.321814542e-05 2.320424421e-05 2.188412937e-05);
    }
    walls
    {
        type            calculated;
        value           uniform 0;
    }
}


// ************************************************************************* //
