/*--------------------------------*- C++ -*----------------------------------*\
  =========                 |
  \\      /  F ield         | OpenFOAM: The Open Source CFD Toolbox
   \\    /   O peration     | Website:  https://openfoam.org
    \\  /    A nd           | Version:  7
     \\/     M anipulation  |
\*---------------------------------------------------------------------------*/
FoamFile
{
    version     2.0;
    format      ascii;
    class       volScalarField;
    location    "0.03";
    object      kappaavg;
}
// * * * * * * * * * * * * * * * * * * * * * * * * * * * * * * * * * * * * * //

dimensions      [1 1 -3 -1 0 0 0];

internalField   nonuniform List<scalar> 
54
(
0.02732385603
0.02732385569
0.02732385606
0.02732386238
0.02732386204
0.02732386241
0.02732386943
0.02732386909
0.02732386945
0.02735807278
0.02735807208
0.02735807282
0.02735808206
0.02735808136
0.0273580821
0.02735809277
0.02735809206
0.0273580928
0.02741770968
0.02741770823
0.02741770974
0.02741772498
0.02741772353
0.02741772504
0.02741774321
0.02741774175
0.02741774326
0.0274874355
0.02748743294
0.02748743557
0.0274874595
0.02748745693
0.02748745956
0.0274874886
0.02748748602
0.02748748866
0.02754884438
0.0275488406
0.02754884445
0.02754887784
0.02754887405
0.02754887791
0.02754891879
0.02754891498
0.02754891885
0.02758485307
0.02758484842
0.02758485314
0.02758489307
0.02758488841
0.02758489314
0.02758494222
0.02758493754
0.02758494228
)
;

boundaryField
{
    inlet
    {
        type            calculated;
        value           uniform 0.02688265352;
    }
    outlet
    {
        type            calculated;
        value           nonuniform List<scalar> 9(0.02797334594 0.0279645322 0.02798057612 0.02796063468 0.02795205824 0.02796759958 0.02797334451 0.02796452904 0.02798058148);
    }
    walls
    {
        type            calculated;
        value           nonuniform List<scalar> 
72
(
0.0270149032
0.02716030161
0.02732694297
0.02751965935
0.02773771721
0.02797334594
0.02701511122
0.02716009404
0.0273253689
0.02751540565
0.02772959807
0.02796063468
0.02701490318
0.0271602968
0.02732695449
0.02751965884
0.02773773896
0.02797334451
0.02701490293
0.02716025774
0.02732713152
0.02752063479
0.02774065706
0.02798057612
0.02701511096
0.02716005526
0.02732553637
0.02751635132
0.02773240421
0.02796759958
0.02701490291
0.02716025503
0.02732713692
0.02752064164
0.02774065782
0.02798058148
0.02701490318
0.02701511108
0.02701490291
0.0271602968
0.02716007591
0.02716025503
0.02732695449
0.02732545668
0.02732713692
0.02751965884
0.02751590465
0.02752064164
0.02773773896
0.02773110496
0.02774065782
0.02797334451
0.02796452904
0.02798058148
0.0270149032
0.02701511108
0.02701490293
0.02716030161
0.02716007454
0.02716025774
0.02732694297
0.02732545674
0.02732713152
0.02751965935
0.02751590033
0.02752063479
0.02773771721
0.02773111166
0.02774065706
0.02797334594
0.0279645322
0.02798057612
)
;
    }
}


// ************************************************************************* //
