/*--------------------------------*- C++ -*----------------------------------*\
  =========                 |
  \\      /  F ield         | OpenFOAM: The Open Source CFD Toolbox
   \\    /   O peration     | Website:  https://openfoam.org
    \\  /    A nd           | Version:  7
     \\/     M anipulation  |
\*---------------------------------------------------------------------------*/
FoamFile
{
    version     2.0;
    format      ascii;
    class       surfaceScalarField;
    location    "0.03";
    object      phi;
}
// * * * * * * * * * * * * * * * * * * * * * * * * * * * * * * * * * * * * * //

dimensions      [0 3 -1 0 0 0 0];

internalField   nonuniform List<scalar> 
117
(
3.521952982e-08
4.818160315e-08
3.059398799e-05
-3.500596043e-08
4.739715423e-08
3.073242044e-05
4.813172224e-08
3.059424545e-05
3.454935314e-08
-2.248820204e-08
3.074544446e-05
-3.445775345e-08
-2.19452923e-08
3.088470664e-05
-2.247504949e-08
3.074547117e-05
3.535946975e-08
3.061902618e-05
-3.519392792e-08
3.075767816e-05
3.061919982e-05
3.943447118e-08
2.441872259e-08
2.901151256e-05
-3.994800419e-08
2.444291195e-08
2.925111056e-05
2.455014534e-08
2.901113462e-05
3.967808877e-08
-5.568348278e-08
2.924945946e-05
-3.978362756e-08
-5.54976561e-08
2.948929263e-05
-5.569330026e-08
2.924951748e-05
3.986848549e-08
2.900467884e-05
-4.024247883e-08
2.924580808e-05
2.900447508e-05
5.063797919e-08
8.88428579e-09
2.699699371e-05
-5.062885455e-08
8.979560672e-09
2.735483723e-05
8.784590022e-09
2.699674693e-05
5.090763433e-08
-9.078467018e-08
2.731154295e-05
-5.119258446e-08
-9.102651466e-08
2.766895038e-05
-9.082716815e-08
2.731126887e-05
5.095350832e-08
2.691174567e-05
-5.110954767e-08
2.727196134e-05
2.691136799e-05
5.422882723e-08
-3.604452521e-08
2.528452297e-05
-5.470497494e-08
-3.489148399e-08
2.576835364e-05
-3.574070798e-08
2.528353967e-05
5.51533337e-08
-1.391969537e-07
2.563514974e-05
-5.502287381e-08
-1.389348737e-07
2.61214527e-05
-1.391706876e-07
2.563528677e-05
5.511069182e-08
2.503433213e-05
-5.521967598e-08
2.552400024e-05
2.503389792e-05
4.835785684e-08
-1.35992338e-07
2.431030221e-05
-4.800389906e-08
-1.344569853e-07
2.490988896e-05
-1.36192997e-07
2.430990495e-05
4.86609069e-08
-2.261449416e-07
2.459662863e-05
-4.869879556e-08
-2.254158702e-07
2.520170202e-05
-2.262193209e-07
2.459659734e-05
4.871683921e-08
2.371480147e-05
-4.866658945e-08
2.43236329e-05
2.371436444e-05
3.115972487e-08
-3.675275783e-07
-3.1156805e-08
-3.631127224e-07
-3.673819213e-07
3.147022747e-08
-4.324781462e-07
-3.119710277e-08
-4.288644316e-07
-4.324838846e-07
3.116353928e-08
-3.100833642e-08
)
;

boundaryField
{
    inlet
    {
        type            calculated;
        value           nonuniform List<scalar> 9(-3.102855299e-05 -3.106290004e-05 -3.102855299e-05 -3.106290004e-05 -3.11013218e-05 -3.106290004e-05 -3.102855299e-05 -3.106290004e-05 -3.102855299e-05);
    }
    outlet
    {
        type            calculated;
        value           nonuniform List<scalar> 9(2.423725599e-05 2.421561343e-05 2.285103404e-05 2.491581369e-05 2.490535436e-05 2.354659932e-05 2.423672242e-05 2.42160082e-05 2.285075433e-05);
    }
    walls
    {
        type            calculated;
        value           uniform 0;
    }
}


// ************************************************************************* //
