/*--------------------------------*- C++ -*----------------------------------*\
  =========                 |
  \\      /  F ield         | OpenFOAM: The Open Source CFD Toolbox
   \\    /   O peration     | Website:  https://openfoam.org
    \\  /    A nd           | Version:  7
     \\/     M anipulation  |
\*---------------------------------------------------------------------------*/
FoamFile
{
    version     2.0;
    format      ascii;
    class       surfaceScalarField;
    location    "0.03";
    object      rhoPhi;
}
// * * * * * * * * * * * * * * * * * * * * * * * * * * * * * * * * * * * * * //

dimensions      [1 0 -1 0 0 0 0];

internalField   nonuniform List<scalar> 
117
(
4.128784704e-08
5.648326614e-08
3.57621812e-05
-4.10374797e-08
5.556300984e-08
3.592380388e-05
5.642479079e-08
3.57624847e-05
4.050170343e-08
-2.636289115e-08
3.593903731e-05
-4.039432245e-08
-2.572613903e-08
3.61015338e-05
-2.634747244e-08
3.593906819e-05
4.145185017e-08
3.579146886e-05
-4.125778576e-08
3.595334603e-05
3.579167338e-05
4.596287401e-08
2.846127415e-08
3.371980763e-05
-4.656142607e-08
2.848941718e-08
3.399902521e-05
2.861445587e-08
3.371936688e-05
4.624679154e-08
-6.490203054e-08
3.399710417e-05
-4.636980182e-08
-6.468532048e-08
3.427644395e-05
-6.491347551e-08
3.399717123e-05
4.646884318e-08
3.37118509e-05
-4.690475436e-08
3.399285515e-05
3.371161348e-05
5.86922343e-08
1.0297375e-08
3.119952454e-05
-5.868165155e-08
1.040822416e-08
3.161585287e-05
1.018182094e-08
3.119923313e-05
5.900708974e-08
-1.052242525e-07
3.156556695e-05
-5.933737566e-08
-1.055088525e-07
3.198123894e-05
-1.052735034e-07
3.156524734e-05
5.905778126e-08
3.110050543e-05
-5.923863541e-08
3.151959038e-05
3.110006283e-05
6.249217646e-08
-4.153666256e-08
2.904140508e-05
-6.304087398e-08
-4.021311714e-08
2.960318813e-05
-4.118654533e-08
2.904026238e-05
6.356483404e-08
-1.604041831e-07
2.944915145e-05
-6.341447191e-08
-1.601229347e-07
3.001368286e-05
-1.603738792e-07
2.944930738e-05
6.350661179e-08
2.875212531e-05
-6.363219064e-08
2.932062029e-05
2.875161898e-05
5.537093206e-08
-1.557103435e-07
2.773020372e-05
-5.496562106e-08
-1.539942731e-07
2.8424742e-05
-1.559400443e-07
2.772973466e-05
5.573007605e-08
-2.589209929e-07
2.806433871e-05
-5.577347114e-08
-2.581572175e-07
2.876514295e-05
-2.590061289e-07
2.80643049e-05
5.577631673e-08
2.704563018e-05
-5.571877815e-08
2.775060227e-05
2.704512355e-05
3.542098051e-08
-4.177563555e-07
-3.541765435e-08
-4.129297686e-07
-4.175907214e-07
3.578498095e-08
-4.915126668e-07
-3.547441025e-08
-4.876354663e-07
-4.915191169e-07
3.541535968e-08
-3.523897548e-08
)
;

boundaryField
{
    inlet
    {
        type            calculated;
        value           nonuniform List<scalar> 9(-3.659599102e-05 -3.663647678e-05 -3.659594788e-05 -3.663649855e-05 -3.668179014e-05 -3.663645533e-05 -3.659599103e-05 -3.663647679e-05 -3.659594789e-05);
    }
    outlet
    {
        type            calculated;
        value           nonuniform List<scalar> 9(2.754530334e-05 2.752935854e-05 2.59624122e-05 2.832978042e-05 2.83264728e-05 2.676564004e-05 2.754468607e-05 2.75298089e-05 2.596208537e-05);
    }
    walls
    {
        type            calculated;
        value           uniform 0;
    }
}


// ************************************************************************* //
