/*--------------------------------*- C++ -*----------------------------------*\
  =========                 |
  \\      /  F ield         | OpenFOAM: The Open Source CFD Toolbox
   \\    /   O peration     | Website:  https://openfoam.org
    \\  /    A nd           | Version:  7
     \\/     M anipulation  |
\*---------------------------------------------------------------------------*/
FoamFile
{
    version     2.0;
    format      ascii;
    class       volVectorField::Internal;
    location    "0.03";
    object      steelCloud:UTrans;
}
// * * * * * * * * * * * * * * * * * * * * * * * * * * * * * * * * * * * * * //

dimensions      [1 1 -1 0 0 0 0];

value           nonuniform List<vector> 
54
(
(-6.380681711e-08 5.855561998e-13 -2.785388352e-10)
(-6.392916573e-08 5.866789951e-13 -2.790729293e-10)
(-6.380681711e-08 5.855561998e-13 -2.785388352e-10)
(-6.392916573e-08 5.866789951e-13 -2.790729293e-10)
(-6.406570878e-08 5.879320529e-13 -2.79668987e-10)
(-6.392916573e-08 5.866789951e-13 -2.790729293e-10)
(-6.380681711e-08 5.855561998e-13 -2.785388352e-10)
(-6.392916573e-08 5.866789951e-13 -2.790729293e-10)
(-6.380681711e-08 5.855561998e-13 -2.785388352e-10)
(-5.920769123e-08 5.433499468e-13 -2.584620594e-10)
(-5.933438503e-08 5.445126178e-13 -2.590151217e-10)
(-5.920769123e-08 5.433499467e-13 -2.584620594e-10)
(-5.933438503e-08 5.445126178e-13 -2.590151217e-10)
(-5.948061532e-08 5.458545755e-13 -2.596534675e-10)
(-5.933438503e-08 5.445126178e-13 -2.590151217e-10)
(-5.920769123e-08 5.433499467e-13 -2.584620594e-10)
(-5.933438503e-08 5.445126178e-13 -2.590151217e-10)
(-5.920769123e-08 5.433499468e-13 -2.584620594e-10)
(-5.062001933e-08 4.645407418e-13 -2.209739e-10)
(-5.070686893e-08 4.653377621e-13 -2.213530286e-10)
(-5.062001933e-08 4.645407418e-13 -2.209739e-10)
(-5.070686893e-08 4.653377621e-13 -2.213530286e-10)
(-5.080438792e-08 4.662326954e-13 -2.217787327e-10)
(-5.070686893e-08 4.653377621e-13 -2.213530286e-10)
(-5.062001933e-08 4.645407418e-13 -2.209739e-10)
(-5.070686893e-08 4.653377621e-13 -2.213530286e-10)
(-5.062001933e-08 4.645407419e-13 -2.209739e-10)
(-4.05893539e-08 3.724891618e-13 -1.771865746e-10)
(-4.06334766e-08 3.728940765e-13 -1.773791854e-10)
(-4.05893539e-08 3.724891618e-13 -1.771865746e-10)
(-4.06334766e-08 3.728940765e-13 -1.773791854e-10)
(-4.068144737e-08 3.733343051e-13 -1.775885945e-10)
(-4.06334766e-08 3.728940765e-13 -1.773791854e-10)
(-4.05893539e-08 3.724891618e-13 -1.771865746e-10)
(-4.06334766e-08 3.728940765e-13 -1.773791854e-10)
(-4.05893539e-08 3.724891618e-13 -1.771865746e-10)
(-3.21326543e-08 2.948818918e-13 -1.402701546e-10)
(-3.215145026e-08 2.950543827e-13 -1.403522055e-10)
(-3.21326543e-08 2.948818918e-13 -1.402701546e-10)
(-3.215145026e-08 2.950543827e-13 -1.403522055e-10)
(-3.217135005e-08 2.952370034e-13 -1.40439075e-10)
(-3.215145026e-08 2.950543827e-13 -1.403522055e-10)
(-3.21326543e-08 2.948818918e-13 -1.402701546e-10)
(-3.215145026e-08 2.950543827e-13 -1.403522055e-10)
(-3.21326543e-08 2.948818918e-13 -1.402701546e-10)
(-2.740255612e-08 2.514737038e-13 -1.196216394e-10)
(-2.74111798e-08 2.515528434e-13 -1.196592847e-10)
(-2.740255612e-08 2.514737038e-13 -1.196216394e-10)
(-2.74111798e-08 2.515528434e-13 -1.196592847e-10)
(-2.742012652e-08 2.516349476e-13 -1.196983402e-10)
(-2.74111798e-08 2.515528435e-13 -1.196592847e-10)
(-2.740255612e-08 2.514737038e-13 -1.196216394e-10)
(-2.74111798e-08 2.515528435e-13 -1.196592847e-10)
(-2.740255612e-08 2.514737038e-13 -1.196216394e-10)
)
;


// ************************************************************************* //
