/*--------------------------------*- C++ -*----------------------------------*\
  =========                 |
  \\      /  F ield         | OpenFOAM: The Open Source CFD Toolbox
   \\    /   O peration     | Website:  https://openfoam.org
    \\  /    A nd           | Version:  7
     \\/     M anipulation  |
\*---------------------------------------------------------------------------*/
FoamFile
{
    version     2.0;
    format      ascii;
    class       volScalarField;
    location    "0.03";
    object      T;
}
// * * * * * * * * * * * * * * * * * * * * * * * * * * * * * * * * * * * * * //

dimensions      [0 0 0 1 0 0 0];

internalField   nonuniform List<scalar> 
54
(
299.8107352
299.8140168
299.8107351
299.8140149
299.8176798
299.814015
299.8107319
299.8140135
299.8107318
301.5438835
301.5438131
301.5438405
301.543292
301.544414
301.5432979
301.5428278
301.5427914
301.5428017
303.2366555
303.2235519
303.2367257
303.2237428
303.2123284
303.2237435
303.237241
303.2239736
303.2372781
305.0053953
304.9648259
305.005446
304.9690767
304.9309657
304.9691311
305.0139477
304.972951
305.0140307
306.9856018
306.9005391
306.9858327
306.9170221
306.8350467
306.9169981
307.0173183
306.9305221
307.0173979
309.2475584
309.1023134
309.2476805
309.150371
309.0086343
309.1503535
309.3365272
309.1868038
309.3366348
)
;

boundaryField
{
    inlet
    {
        type            fixedValue;
        value           uniform 298;
    }
    outlet
    {
        type            zeroGradient;
    }
    walls
    {
        type            zeroGradient;
    }
}


// ************************************************************************* //
