/*--------------------------------*- C++ -*----------------------------------*\
  =========                 |
  \\      /  F ield         | OpenFOAM: The Open Source CFD Toolbox
   \\    /   O peration     | Website:  https://openfoam.org
    \\  /    A nd           | Version:  7
     \\/     M anipulation  |
\*---------------------------------------------------------------------------*/
FoamFile
{
    version     2.0;
    format      ascii;
    class       volScalarField;
    location    "0.005";
    object      p;
}
// * * * * * * * * * * * * * * * * * * * * * * * * * * * * * * * * * * * * * //

dimensions      [1 -1 -2 0 0 0 0];

internalField   nonuniform List<scalar> 
54
(
101325.2079
101325.2039
101325.2079
101325.1552
101325.1512
101325.1552
101325.1105
101325.1065
101325.1105
101325.1496
101325.148
101325.1496
101325.0998
101325.0981
101325.0998
101325.0532
101325.0516
101325.0532
101325.115
101325.1144
101325.115
101325.0668
101325.0662
101325.0668
101325.0199
101325.0193
101325.0199
101325.0951
101325.095
101325.0951
101325.0477
101325.0476
101325.0477
101325.0006
101325.0004
101325.0006
101325.0733
101325.0745
101325.0733
101325.0291
101325.0303
101325.0291
101324.9826
101324.9837
101324.9825
101325.0488
101325.0485
101325.0488
101325.008
101325.0076
101325.008
101324.9681
101324.9676
101324.9681
)
;

boundaryField
{
    inlet
    {
        type            zeroGradient;
    }
    outlet
    {
        type            totalPressure;
        rho             rho;
        psi             none;
        gamma           1;
        p0              uniform 101325;
        value           uniform 101325;
    }
    walls
    {
        type            zeroGradient;
    }
}


// ************************************************************************* //
