/*--------------------------------*- C++ -*----------------------------------*\
  =========                 |
  \\      /  F ield         | OpenFOAM: The Open Source CFD Toolbox
   \\    /   O peration     | Website:  https://openfoam.org
    \\  /    A nd           | Version:  7
     \\/     M anipulation  |
\*---------------------------------------------------------------------------*/
FoamFile
{
    version     2.0;
    format      ascii;
    class       surfaceScalarField;
    location    "0.005";
    object      phi;
}
// * * * * * * * * * * * * * * * * * * * * * * * * * * * * * * * * * * * * * //

dimensions      [0 3 -1 0 0 0 0];

internalField   nonuniform List<scalar> 
117
(
3.190809872e-08
2.767460751e-08
1.992594329e-05
-3.193395441e-08
2.771825707e-08
2.002316049e-05
2.769958905e-08
1.992589103e-05
3.217495749e-08
-3.630480291e-08
2.001877617e-05
-3.217578702e-08
-3.662641563e-08
2.011719677e-05
-3.628158089e-08
2.00187774e-05
3.207701624e-08
1.991701415e-05
-3.205466829e-08
2.001441459e-05
1.991706095e-05
1.650734707e-08
2.271827293e-08
1.980486514e-05
-1.641006381e-08
2.276234725e-08
1.995440482e-05
2.263543629e-08
1.980499228e-05
1.673502332e-08
-1.049491141e-08
1.995629418e-05
-1.674475127e-08
-1.07740115e-08
2.010823578e-05
-1.057643164e-08
1.995628445e-05
1.666297552e-08
1.980789758e-05
-1.673004917e-08
1.99580251e-05
1.980779633e-05
9.144871194e-09
2.735268414e-08
1.970973721e-05
-9.163793983e-09
2.701251404e-08
1.988947513e-05
2.737772983e-08
1.970982131e-05
9.516759996e-09
8.637558099e-09
1.990939879e-05
-9.512678523e-09
8.009368029e-09
2.009262137e-05
8.654468376e-09
1.990940162e-05
9.601113608e-09
1.974855686e-05
-9.578080272e-09
1.992925224e-05
1.974849487e-05
3.132728888e-09
-8.624230518e-09
1.96764678e-05
-3.182931495e-09
-9.644722091e-09
1.986832246e-05
-8.580623861e-09
1.967645769e-05
3.555603456e-09
-1.551203905e-08
1.987575719e-05
-3.567529891e-09
-1.673646533e-08
2.007154303e-05
-1.547804097e-08
1.987575804e-05
3.778241256e-09
1.969077931e-05
-3.75083911e-09
1.988321256e-05
1.969077902e-05
1.006233057e-08
-3.603186629e-08
1.967782467e-05
-1.005566237e-08
-3.7742472e-08
1.990266734e-05
-3.603344504e-08
1.967782235e-05
1.049028426e-08
-5.679657924e-08
1.986246418e-05
-1.048435928e-08
-5.870644329e-08
2.009103183e-05
-5.679983957e-08
1.986247276e-05
1.071629928e-08
1.959855132e-05
-1.071447003e-08
1.982231868e-05
1.959854991e-05
-5.678195779e-09
-5.786346264e-07
5.641627106e-09
-5.833757546e-07
-5.786099399e-07
-4.795397862e-09
-5.689384334e-07
4.804779254e-09
-5.737307078e-07
-5.689150962e-07
-3.986737294e-09
3.9981934e-09
)
;

boundaryField
{
    inlet
    {
        type            calculated;
        value           uniform -1.968e-05;
    }
    outlet
    {
        type            calculated;
        value           nonuniform List<scalar> 9(2.022275314e-05 1.981854759e-05 1.899404709e-05 2.04357933e-05 2.003323268e-05 1.920150254e-05 2.022268945e-05 1.981856695e-05 1.899408052e-05);
    }
    walls
    {
        type            calculated;
        value           uniform 0;
    }
}


// ************************************************************************* //
