/*--------------------------------*- C++ -*----------------------------------*\
  =========                 |
  \\      /  F ield         | OpenFOAM: The Open Source CFD Toolbox
   \\    /   O peration     | Website:  https://openfoam.org
    \\  /    A nd           | Version:  7
     \\/     M anipulation  |
\*---------------------------------------------------------------------------*/
FoamFile
{
    version     2.0;
    format      ascii;
    class       surfaceScalarField;
    location    "0.005";
    object      rhoPhi;
}
// * * * * * * * * * * * * * * * * * * * * * * * * * * * * * * * * * * * * * //

dimensions      [1 0 -1 0 0 0 0];

internalField   nonuniform List<scalar> 
117
(
3.588137586e-08
3.112071191e-08
2.205893607e-05
-3.591045115e-08
3.11697961e-08
2.216655971e-05
3.114880419e-08
2.205887818e-05
3.61814458e-08
-4.082553844e-08
2.216169516e-05
-3.618237862e-08
-4.118719798e-08
2.227065098e-05
-4.079942479e-08
2.216169652e-05
3.607129169e-08
2.204902942e-05
-3.604616096e-08
2.215685582e-05
2.204908125e-05
1.798590161e-08
2.475313085e-08
2.137926851e-05
-1.787990473e-08
2.480115285e-08
2.154069601e-05
2.466287458e-08
2.137940573e-05
1.823396179e-08
-1.143492683e-08
2.154272487e-05
-1.824456106e-08
-1.173902554e-08
2.170674516e-05
-1.152374873e-08
2.154271437e-05
1.815545191e-08
2.138252081e-05
-1.822853325e-08
2.154458273e-05
2.138241154e-05
9.779727324e-09
2.925155743e-08
2.096119565e-05
-9.799963766e-09
2.888777224e-08
2.115234606e-05
2.927834182e-08
2.096128507e-05
1.017742834e-08
9.237188505e-09
2.117352406e-05
-1.017306353e-08
8.565388713e-09
2.136838029e-05
9.255272721e-09
2.117352708e-05
1.026763269e-08
2.100245894e-05
-1.024300037e-08
2.119462741e-05
2.100239305e-05
3.313069944e-09
-9.120697228e-09
2.073971024e-05
-3.366162552e-09
-1.0199935e-08
2.094193227e-05
-9.074580288e-09
2.073969957e-05
3.760286157e-09
-1.640500446e-08
2.094975833e-05
-3.772899152e-09
-1.769991615e-08
2.115612388e-05
-1.636904927e-08
2.094975925e-05
3.995738331e-09
2.075477451e-05
-3.966758765e-09
2.095760619e-05
2.075477424e-05
1.057053605e-08
-3.785167323e-08
2.063007778e-05
-1.056353107e-08
-3.964867463e-08
2.086580128e-05
-3.785333172e-08
2.063007534e-05
1.102009868e-08
-5.966508909e-08
2.082364307e-05
-1.101387447e-08
-6.167141188e-08
2.106327169e-05
-5.966851415e-08
2.082365208e-05
1.125752298e-08
2.054694946e-05
-1.125560136e-08
2.078154537e-05
2.054694801e-05
-5.940975047e-09
-6.054129296e-07
5.902714025e-09
-6.1037347e-07
-6.053871007e-07
-5.017320284e-09
-5.952677581e-07
5.027135831e-09
-6.002818089e-07
-5.952433413e-07
-4.171234574e-09
4.183220845e-09
)
;

boundaryField
{
    inlet
    {
        type            calculated;
        value           nonuniform List<scalar> 9(-2.321026598e-05 -2.321025355e-05 -2.321024299e-05 -2.321026505e-05 -2.321025262e-05 -2.321024207e-05 -2.321026596e-05 -2.321025355e-05 -2.321024301e-05);
    }
    outlet
    {
        type            calculated;
        value           nonuniform List<scalar> 9(2.115862417e-05 2.073571284e-05 1.987305592e-05 2.138152353e-05 2.096033325e-05 2.009011211e-05 2.115855755e-05 2.073573311e-05 1.987309091e-05);
    }
    walls
    {
        type            calculated;
        value           uniform 0;
    }
}


// ************************************************************************* //
