/*--------------------------------*- C++ -*----------------------------------*\
  =========                 |
  \\      /  F ield         | OpenFOAM: The Open Source CFD Toolbox
   \\    /   O peration     | Website:  https://openfoam.org
    \\  /    A nd           | Version:  7
     \\/     M anipulation  |
\*---------------------------------------------------------------------------*/
FoamFile
{
    version     2.0;
    format      ascii;
    class       volScalarField;
    location    "0.005";
    object      T;
}
// * * * * * * * * * * * * * * * * * * * * * * * * * * * * * * * * * * * * * //

dimensions      [0 0 0 1 0 0 0];

internalField   nonuniform List<scalar> 
54
(
312.5382109
312.5382057
312.5382109
312.5382057
312.5382003
312.5382057
312.5382109
312.5382057
312.5382109
322.5641595
322.5641543
322.5641595
322.5641543
322.564149
322.5641543
322.5641595
322.5641543
322.5641595
328.6410104
328.6410061
328.6410104
328.6410061
328.6410016
328.6410061
328.6410104
328.6410061
328.6410104
332.3250114
332.3250081
332.3250112
332.3250081
332.3250046
332.3250079
332.3250112
332.3250079
332.325011
334.5586726
334.5586702
334.5586724
334.5586702
334.5586678
334.5586701
334.5586725
334.5586701
334.5586723
335.9102413
335.9102398
335.9102412
335.9102398
335.9102382
335.9102397
335.9102412
335.9102397
335.9102411
)
;

boundaryField
{
    inlet
    {
        type            fixedValue;
        value           uniform 298;
    }
    outlet
    {
        type            zeroGradient;
    }
    walls
    {
        type            zeroGradient;
    }
}


// ************************************************************************* //
