/*--------------------------------*- C++ -*----------------------------------*\
  =========                 |
  \\      /  F ield         | OpenFOAM: The Open Source CFD Toolbox
   \\    /   O peration     | Website:  https://openfoam.org
    \\  /    A nd           | Version:  7
     \\/     M anipulation  |
\*---------------------------------------------------------------------------*/
FoamFile
{
    version     2.0;
    format      ascii;
    class       surfaceScalarField;
    location    "0.05";
    object      alphaRhoPhi;
}
// * * * * * * * * * * * * * * * * * * * * * * * * * * * * * * * * * * * * * //

dimensions      [1 0 -1 0 0 0 0];

internalField   nonuniform List<scalar> 
54
(
2.6504887e-08
3.662791441e-08
2.314837721e-05
-2.649870507e-08
3.609142295e-08
2.322842571e-05
3.662778973e-08
2.314838282e-05
2.608546786e-08
-1.66827362e-08
2.323872411e-05
-2.608068488e-08
-1.62648196e-08
2.331601411e-05
-1.66829427e-08
2.323872635e-05
2.66729846e-08
2.316812579e-05
-2.666719573e-08
2.3248558e-05
2.316812949e-05
3.103533327e-08
2.052827297e-08
2.309777397e-05
-3.103099945e-08
2.032870818e-08
2.32711194e-05
2.052923731e-08
2.309778235e-05
3.09643787e-08
-4.203587769e-08
2.327127813e-05
-3.095781129e-08
-4.190659692e-08
2.344112646e-05
-4.203616532e-08
2.327128241e-05
3.127277915e-08
2.309577509e-05
-3.126767582e-08
2.327013958e-05
2.30957816e-05
4.213294377e-08
9.09393951e-09
-4.213897713e-08
9.433737161e-09
9.095072233e-09
4.243113879e-08
-7.336623898e-08
-4.243049178e-08
-7.330370855e-08
-7.336822677e-08
4.248711147e-08
-4.24938265e-08
)
;

boundaryField
{
    inlet
    {
        type            calculated;
        value           nonuniform List<scalar> 9(-2.321116723e-05 -2.321115185e-05 -2.321113978e-05 -2.321116569e-05 -2.321115033e-05 -2.321113822e-05 -2.321116723e-05 -2.321115185e-05 -2.321113978e-05);
    }
    outlet
    {
        type            calculated;
        value           nonuniform 0();
    }
    walls
    {
        type            calculated;
        value           uniform 0;
    }
    procBoundary0to1
    {
        type            processor;
        value           nonuniform List<scalar> 9(2.304821823e-05 2.334762926e-05 2.304821222e-05 2.331297545e-05 2.361037917e-05 2.331298326e-05 2.298158008e-05 2.328348216e-05 2.298158055e-05);
    }
}


// ************************************************************************* //
