/*--------------------------------*- C++ -*----------------------------------*\
  =========                 |
  \\      /  F ield         | OpenFOAM: The Open Source CFD Toolbox
   \\    /   O peration     | Website:  https://openfoam.org
    \\  /    A nd           | Version:  7
     \\/     M anipulation  |
\*---------------------------------------------------------------------------*/
FoamFile
{
    version     2.0;
    format      ascii;
    class       volScalarField;
    location    "0.05";
    object      cpavg;
}
// * * * * * * * * * * * * * * * * * * * * * * * * * * * * * * * * * * * * * //

dimensions      [0 2 -2 -1 0 0 0];

internalField   nonuniform List<scalar> 
27
(
1011.62082
1011.62082
1011.62082
1011.620822
1011.620822
1011.620822
1011.620824
1011.620824
1011.620824
1011.636034
1011.636034
1011.636034
1011.636037
1011.636037
1011.636037
1011.63604
1011.63604
1011.63604
1011.661888
1011.661888
1011.661888
1011.661893
1011.661893
1011.661893
1011.661899
1011.661899
1011.661899
)
;

boundaryField
{
    inlet
    {
        type            calculated;
        value           uniform 1011.338357;
    }
    outlet
    {
        type            calculated;
        value           nonuniform 0();
    }
    walls
    {
        type            calculated;
        value           nonuniform List<scalar> 
36
(
1011.453311
1011.56166
1011.655228
1011.45353
1011.561743
1011.654771
1011.453311
1011.56166
1011.655228
1011.45331
1011.56157
1011.655155
1011.45353
1011.561651
1011.654693
1011.45331
1011.56157
1011.655155
1011.453311
1011.45353
1011.45331
1011.56166
1011.561696
1011.56157
1011.655228
1011.654727
1011.655155
1011.453311
1011.45353
1011.45331
1011.56166
1011.561696
1011.56157
1011.655228
1011.654727
1011.655155
)
;
    }
    procBoundary0to1
    {
        type            processor;
        value           nonuniform List<scalar> 9(1011.691124 1011.691123 1011.691124 1011.691133 1011.691132 1011.691133 1011.691143 1011.691142 1011.691143);
    }
}


// ************************************************************************* //
