/*--------------------------------*- C++ -*----------------------------------*\
  =========                 |
  \\      /  F ield         | OpenFOAM: The Open Source CFD Toolbox
   \\    /   O peration     | Website:  https://openfoam.org
    \\  /    A nd           | Version:  7
     \\/     M anipulation  |
\*---------------------------------------------------------------------------*/
FoamFile
{
    version     2.0;
    format      ascii;
    class       volScalarField;
    location    "0.05";
    object      muavg;
}
// * * * * * * * * * * * * * * * * * * * * * * * * * * * * * * * * * * * * * //

dimensions      [1 -1 -1 0 0 0 0];

internalField   nonuniform List<scalar> 
27
(
1.860958842e-05
1.860958838e-05
1.860958842e-05
1.860958983e-05
1.860958979e-05
1.860958983e-05
1.860959131e-05
1.860959127e-05
1.860959132e-05
1.862300759e-05
1.862300744e-05
1.86230076e-05
1.862300989e-05
1.862300974e-05
1.86230099e-05
1.862301251e-05
1.862301235e-05
1.862301251e-05
1.864577989e-05
1.864577949e-05
1.86457799e-05
1.864578413e-05
1.864578373e-05
1.864578414e-05
1.864578917e-05
1.864578876e-05
1.864578918e-05
)
;

boundaryField
{
    inlet
    {
        type            calculated;
        value           uniform 1.835366622e-05;
    }
    outlet
    {
        type            calculated;
        value           nonuniform 0();
    }
    walls
    {
        type            calculated;
        value           nonuniform List<scalar> 
36
(
1.846021292e-05
1.855837972e-05
1.864148663e-05
1.846041403e-05
1.855845365e-05
1.864108403e-05
1.846021292e-05
1.855837941e-05
1.864148647e-05
1.846021272e-05
1.855829864e-05
1.86414228e-05
1.846041383e-05
1.855837168e-05
1.864101556e-05
1.846021272e-05
1.855829843e-05
1.864142264e-05
1.846021292e-05
1.846041391e-05
1.846021272e-05
1.855837941e-05
1.855841141e-05
1.855829843e-05
1.864148647e-05
1.864104583e-05
1.864142264e-05
1.846021292e-05
1.846041391e-05
1.846021272e-05
1.855837972e-05
1.855841144e-05
1.855829864e-05
1.864148663e-05
1.864104592e-05
1.86414228e-05
)
;
    }
    procBoundary0to1
    {
        type            processor;
        value           nonuniform List<scalar> 9(1.867148304e-05 1.867148228e-05 1.867148306e-05 1.867149024e-05 1.867148948e-05 1.867149026e-05 1.867149894e-05 1.867149817e-05 1.867149896e-05);
    }
}


// ************************************************************************* //
