/*--------------------------------*- C++ -*----------------------------------*\
  =========                 |
  \\      /  F ield         | OpenFOAM: The Open Source CFD Toolbox
   \\    /   O peration     | Website:  https://openfoam.org
    \\  /    A nd           | Version:  7
     \\/     M anipulation  |
\*---------------------------------------------------------------------------*/
FoamFile
{
    version     2.0;
    format      ascii;
    class       volScalarField;
    location    "0.05";
    object      p;
}
// * * * * * * * * * * * * * * * * * * * * * * * * * * * * * * * * * * * * * //

dimensions      [1 -1 -2 0 0 0 0];

internalField   nonuniform List<scalar> 
27
(
101329.144
101329.1373
101329.144
101329.0769
101329.0702
101329.0769
101329.0242
101329.0174
101329.0242
101327.6112
101327.6067
101327.6112
101327.5444
101327.5398
101327.5444
101327.4876
101327.483
101327.4876
101326.4431
101326.4387
101326.4431
101326.3773
101326.3728
101326.3773
101326.3215
101326.3169
101326.3215
)
;

boundaryField
{
    inlet
    {
        type            zeroGradient;
    }
    outlet
    {
        type            totalPressure;
        rho             rho;
        psi             none;
        gamma           1;
        p0              nonuniform 0();
        value           nonuniform 0();
    }
    walls
    {
        type            zeroGradient;
    }
    procBoundary0to1
    {
        type            processor;
        value           nonuniform List<scalar> 9(101325.8571 101325.8538 101325.8571 101325.7968 101325.7934 101325.7968 101325.744 101325.7404 101325.744);
    }
}


// ************************************************************************* //
