/*--------------------------------*- C++ -*----------------------------------*\
  =========                 |
  \\      /  F ield         | OpenFOAM: The Open Source CFD Toolbox
   \\    /   O peration     | Website:  https://openfoam.org
    \\  /    A nd           | Version:  7
     \\/     M anipulation  |
\*---------------------------------------------------------------------------*/
FoamFile
{
    version     2.0;
    format      ascii;
    class       volScalarField;
    location    "0.05";
    object      pDyn;
}
// * * * * * * * * * * * * * * * * * * * * * * * * * * * * * * * * * * * * * //

dimensions      [1 -1 -2 0 0 0 0];

internalField   nonuniform List<scalar> 
27
(
1.717768447
1.731890017
1.717769576
1.73265834
1.747167537
1.732659097
1.719322077
1.733483592
1.719323105
1.89156624
1.916523133
1.891569779
1.917639397
1.942776162
1.917640497
1.89383604
1.91891257
1.893838362
1.83392023
1.872246341
1.833920565
1.870461361
1.909093363
1.870462764
1.830863526
1.869393097
1.830864618
)
;

boundaryField
{
    inlet
    {
        type            calculated;
        value           nonuniform List<scalar> 9(2.217813268 2.222724528 2.217810646 2.222725853 2.228226366 2.222723223 2.217813268 2.222724528 2.217810646);
    }
    outlet
    {
        type            calculated;
        value           nonuniform 0();
    }
    walls
    {
        type            calculated;
        value           uniform 0;
    }
    procBoundary0to1
    {
        type            processor;
        value           nonuniform List<scalar> 9(1.585935264 1.637022495 1.585927745 1.627675599 1.679466914 1.627676562 1.569870814 1.621179393 1.569866087);
    }
}


// ************************************************************************* //
