/*--------------------------------*- C++ -*----------------------------------*\
  =========                 |
  \\      /  F ield         | OpenFOAM: The Open Source CFD Toolbox
   \\    /   O peration     | Website:  https://openfoam.org
    \\  /    A nd           | Version:  7
     \\/     M anipulation  |
\*---------------------------------------------------------------------------*/
FoamFile
{
    version     2.0;
    format      ascii;
    class       surfaceScalarField;
    location    "0.05";
    object      phi;
}
// * * * * * * * * * * * * * * * * * * * * * * * * * * * * * * * * * * * * * //

dimensions      [0 3 -1 0 0 0 0];

internalField   nonuniform List<scalar> 
54
(
3.569116527e-08
4.932272797e-08
3.061469612e-05
-3.568284076e-08
4.865790492e-08
3.075473568e-05
4.932256007e-08
3.06147034e-05
3.516803951e-08
-2.24647937e-08
3.076834792e-05
-3.516159117e-08
-2.192799408e-08
3.090977084e-05
-2.246507176e-08
3.076835086e-05
3.591756553e-08
3.064077167e-05
-3.59097703e-08
3.078134711e-05
3.064077647e-05
4.037452471e-08
2.670563873e-08
2.902931298e-05
-4.036888657e-08
2.6477566e-08
2.927302107e-05
2.670689313e-08
2.902932323e-05
4.033018315e-08
-5.468520088e-08
2.927316119e-05
-4.032162926e-08
-5.45820439e-08
2.951678891e-05
-5.468557486e-08
2.927316649e-05
4.068325995e-08
2.902669655e-05
-4.067662082e-08
2.927167816e-05
2.902670452e-05
5.126894502e-08
1.106583547e-08
-5.127628637e-08
1.148761664e-08
1.106721373e-08
5.166904333e-08
-8.927455797e-08
-5.166825535e-08
-8.926297352e-08
-8.927697621e-08
5.169973641e-08
-5.170790726e-08
)
;

boundaryField
{
    inlet
    {
        type            calculated;
        value           nonuniform List<scalar> 9(-3.102855299e-05 -3.106290004e-05 -3.102855299e-05 -3.106290004e-05 -3.11013218e-05 -3.106290004e-05 -3.102855299e-05 -3.106290004e-05 -3.102855299e-05);
    }
    outlet
    {
        type            calculated;
        value           nonuniform 0();
    }
    walls
    {
        type            calculated;
        value           uniform 0;
    }
    procBoundary0to1
    {
        type            processor;
        value           nonuniform List<scalar> 9(2.700157213e-05 2.736489358e-05 2.700156502e-05 2.732431474e-05 2.768735702e-05 2.732432383e-05 2.69235932e-05 2.72897814e-05 2.69235937e-05);
    }
}


// ************************************************************************* //
