/*--------------------------------*- C++ -*----------------------------------*\
  =========                 |
  \\      /  F ield         | OpenFOAM: The Open Source CFD Toolbox
   \\    /   O peration     | Website:  https://openfoam.org
    \\  /    A nd           | Version:  7
     \\/     M anipulation  |
\*---------------------------------------------------------------------------*/
FoamFile
{
    version     2.0;
    format      ascii;
    class       surfaceScalarField;
    location    "0.05";
    object      rhoPhi;
}
// * * * * * * * * * * * * * * * * * * * * * * * * * * * * * * * * * * * * * //

dimensions      [1 0 -1 0 0 0 0];

internalField   nonuniform List<scalar> 
54
(
4.181215555e-08
5.778149724e-08
3.575393518e-05
-4.18024034e-08
5.700188937e-08
3.591717131e-05
5.778130055e-08
3.575394384e-05
4.119873453e-08
-2.631745463e-08
3.593309531e-05
-4.119118041e-08
-2.568824866e-08
3.609784167e-05
-2.631778039e-08
3.593309877e-05
4.207733394e-08
3.578443794e-05
-4.206820185e-08
3.594830106e-05
3.578444365e-05
4.700514614e-08
3.109148088e-08
3.370807738e-05
-4.699858226e-08
3.08257459e-08
3.399141155e-05
3.109294144e-08
3.37080896e-05
4.69533067e-08
-6.366622702e-08
3.399164339e-05
-4.694334811e-08
-6.354570576e-08
3.427471011e-05
-6.366666266e-08
3.399164964e-05
4.736477425e-08
3.370516028e-05
-4.735704491e-08
3.398998035e-05
3.370516978e-05
5.9376184e-08
1.281570613e-08
-5.938468656e-08
1.330447599e-08
1.281730243e-08
5.9840979e-08
-1.033919521e-07
-5.984006653e-08
-1.033808144e-07
-1.033947534e-07
5.987529764e-08
-5.988476085e-08
)
;

boundaryField
{
    inlet
    {
        type            calculated;
        value           nonuniform List<scalar> 9(-3.659598234e-05 -3.663646798e-05 -3.659593906e-05 -3.663648981e-05 -3.668178128e-05 -3.663644645e-05 -3.659598234e-05 -3.663646798e-05 -3.659593906e-05);
    }
    outlet
    {
        type            calculated;
        value           nonuniform 0();
    }
    walls
    {
        type            calculated;
        value           uniform 0;
    }
    procBoundary0to1
    {
        type            processor;
        value           nonuniform List<scalar> 9(3.120567911e-05 3.162713451e-05 3.120567097e-05 3.158019182e-05 3.200113621e-05 3.15802024e-05 3.111545571e-05 3.154023966e-05 3.111545635e-05);
    }
}


// ************************************************************************* //
