/*--------------------------------*- C++ -*----------------------------------*\
  =========                 |
  \\      /  F ield         | OpenFOAM: The Open Source CFD Toolbox
   \\    /   O peration     | Website:  https://openfoam.org
    \\  /    A nd           | Version:  7
     \\/     M anipulation  |
\*---------------------------------------------------------------------------*/
FoamFile
{
    version     2.0;
    format      ascii;
    class       volScalarField::Internal;
    location    "0.05";
    object      steelCloud:hsCoeff;
}
// * * * * * * * * * * * * * * * * * * * * * * * * * * * * * * * * * * * * * //

dimensions      [1 2 -2 -1 0 0 0];

value           nonuniform List<scalar> 
27
(
6.813251001e-06
6.826315309e-06
6.813251001e-06
6.826315309e-06
6.840895288e-06
6.826315309e-06
6.813251001e-06
6.826315309e-06
6.813251001e-06
6.322159291e-06
6.335687574e-06
6.322159291e-06
6.335687574e-06
6.35130195e-06
6.335687573e-06
6.322159291e-06
6.335687573e-06
6.322159291e-06
5.405173194e-06
5.414446939e-06
5.405173193e-06
5.414446939e-06
5.424859953e-06
5.414446939e-06
5.405173193e-06
5.414446939e-06
5.405173194e-06
)
;


// ************************************************************************* //
