/*--------------------------------*- C++ -*----------------------------------*\
  =========                 |
  \\      /  F ield         | OpenFOAM: The Open Source CFD Toolbox
   \\    /   O peration     | Website:  https://openfoam.org
    \\  /    A nd           | Version:  7
     \\/     M anipulation  |
\*---------------------------------------------------------------------------*/
FoamFile
{
    version     2.0;
    format      ascii;
    class       volVectorField::Internal;
    location    "0.05";
    object      steelCloud:UTrans;
}
// * * * * * * * * * * * * * * * * * * * * * * * * * * * * * * * * * * * * * //

dimensions      [1 1 -1 0 0 0 0];

value           nonuniform List<vector> 
27
(
(-6.37486531e-08 1.159818789e-14 -2.91591063e-10)
(-6.38708902e-08 1.162042724e-14 -2.921501846e-10)
(-6.37486531e-08 1.159818789e-14 -2.91591063e-10)
(-6.38708902e-08 1.162042724e-14 -2.921501846e-10)
(-6.400730878e-08 1.164524672e-14 -2.927741732e-10)
(-6.38708902e-08 1.162042724e-14 -2.921501846e-10)
(-6.37486531e-08 1.159818789e-14 -2.91591063e-10)
(-6.38708902e-08 1.162042724e-14 -2.921501846e-10)
(-6.37486531e-08 1.159818789e-14 -2.91591063e-10)
(-5.915371963e-08 1.076220314e-14 -2.705734968e-10)
(-5.928029794e-08 1.078523232e-14 -2.711524754e-10)
(-5.915371963e-08 1.076220314e-14 -2.705734968e-10)
(-5.928029794e-08 1.078523232e-14 -2.711524754e-10)
(-5.942639493e-08 1.081181265e-14 -2.718207338e-10)
(-5.928029794e-08 1.078523232e-14 -2.711524754e-10)
(-5.915371963e-08 1.076220314e-14 -2.705734968e-10)
(-5.928029794e-08 1.078523232e-14 -2.711524754e-10)
(-5.915371963e-08 1.076220314e-14 -2.705734968e-10)
(-5.057387594e-08 9.201218956e-15 -2.31328656e-10)
(-5.066064637e-08 9.21700564e-15 -2.317255504e-10)
(-5.057387594e-08 9.201218956e-15 -2.31328656e-10)
(-5.066064637e-08 9.21700564e-15 -2.317255504e-10)
(-5.075807646e-08 9.2347317e-15 -2.321712029e-10)
(-5.066064637e-08 9.21700564e-15 -2.317255504e-10)
(-5.057387594e-08 9.201218956e-15 -2.31328656e-10)
(-5.066064637e-08 9.21700564e-15 -2.317255504e-10)
(-5.057387594e-08 9.201218957e-15 -2.31328656e-10)
)
;


// ************************************************************************* //
