/*--------------------------------*- C++ -*----------------------------------*\
  =========                 |
  \\      /  F ield         | OpenFOAM: The Open Source CFD Toolbox
   \\    /   O peration     | Website:  https://openfoam.org
    \\  /    A nd           | Version:  7
     \\/     M anipulation  |
\*---------------------------------------------------------------------------*/
FoamFile
{
    version     2.0;
    format      ascii;
    class       volScalarField;
    location    "0.05";
    object      T;
}
// * * * * * * * * * * * * * * * * * * * * * * * * * * * * * * * * * * * * * //

dimensions      [0 0 0 1 0 0 0];

internalField   nonuniform List<scalar> 
27
(
300.0154028
300.019208
300.0154027
300.0192057
300.0234528
300.0192057
300.0153989
300.019204
300.0153989
301.8857423
301.887111
301.8857397
301.8862944
301.888935
301.8862939
301.8841737
301.8855217
301.8841719
303.4758337
303.4682167
303.4758305
303.4674326
303.4617343
303.4674313
303.4744977
303.466791
303.4744951
)
;

boundaryField
{
    inlet
    {
        type            fixedValue;
        value           uniform 298;
    }
    outlet
    {
        type            zeroGradient;
    }
    walls
    {
        type            zeroGradient;
    }
    procBoundary0to1
    {
        type            processor;
        value           nonuniform List<scalar> 9(304.746868 304.7242978 304.7468695 304.725572 304.7054015 304.725572 304.749535 304.7266432 304.7495364);
    }
}


// ************************************************************************* //
