/*--------------------------------*- C++ -*----------------------------------*\
  =========                 |
  \\      /  F ield         | OpenFOAM: The Open Source CFD Toolbox
   \\    /   O peration     | Website:  https://openfoam.org
    \\  /    A nd           | Version:  7
     \\/     M anipulation  |
\*---------------------------------------------------------------------------*/
FoamFile
{
    version     2.0;
    format      ascii;
    class       volVectorField;
    location    "0.05";
    object      U;
}
// * * * * * * * * * * * * * * * * * * * * * * * * * * * * * * * * * * * * * //

dimensions      [0 1 -1 0 0 0 0];

internalField   nonuniform List<vector> 
27
(
(1.712558256 0.001655813829 -0.007629098658)
(1.719599379 1.472744147e-07 -0.007673918834)
(1.712558472 -0.001655204232 -0.007629164007)
(1.719993348 0.001632163943 0.003478154389)
(1.727198046 8.01113189e-08 0.003499077498)
(1.719993483 -0.001631612859 0.00347813534)
(1.713313612 0.001649662412 -0.01112144115)
(1.720371898 1.275128168e-07 -0.01112576996)
(1.713313795 -0.001649070508 -0.01112140301)
(1.802613797 0.002968379303 -0.0150742712)
(1.814488013 -2.016063279e-07 -0.01513035244)
(1.802614545 -0.002967154161 -0.01507416882)
(1.815055274 0.002946600295 0.008229154839)
(1.826939731 -1.160336597e-07 0.008289971317)
(1.815055569 -0.002945275555 0.00822915185)
(1.803628512 0.002939650475 -0.02137209318)
(1.815553862 -1.691851019e-07 -0.02141506799)
(1.803629013 -0.00293839239 -0.02137214648)
(1.779403194 0.004167277227 -0.02277006088)
(1.797917259 -1.174192396e-06 -0.02281668584)
(1.77940374 -0.004165617025 -0.02276975934)
(1.797151434 0.004157142003 0.01328715156)
(1.815636617 -8.491883727e-07 0.01342069732)
(1.797151878 -0.004155152108 0.01328707148)
(1.777794538 0.004098977118 -0.03169157)
(1.796422489 -1.193924067e-06 -0.03179029131)
(1.77779511 -0.004097345408 -0.0316918981)
)
;

boundaryField
{
    inlet
    {
        type            interstitialInletVelocity;
        inletVelocity   uniform (1.23 0 0);
        value           nonuniform List<vector> 9((1.939284562 0 0) (1.941431252 0 0) (1.939284562 0 0) (1.941431252 0 0) (1.943832612 0 0) (1.941431252 0 0) (1.939284562 0 0) (1.941431252 0 0) (1.939284562 0 0));
    }
    outlet
    {
        type            pressureInletOutletVelocity;
        phi             alphaRhoPhi;
        value           nonuniform 0();
    }
    walls
    {
        type            noSlip;
    }
    procBoundary0to1
    {
        type            processor;
        value           nonuniform List<vector> 9((1.657902514 0.005044948847 -0.03184736956) (1.684399332 -2.685875186e-06 -0.03187589073) (1.6579012 -0.005043151163 -0.03184666279) (1.679809341 0.005029056312 0.0168893671) (1.706326194 -1.793045359e-06 0.01714460939) (1.679809899 -0.005026358713 0.01688958319) (1.649294278 0.004916242888 -0.04268191368) (1.676040455 -2.389159682e-06 -0.04281404321) (1.649293639 -0.004914153796 -0.0426825365));
    }
}


// ************************************************************************* //
