/*--------------------------------*- C++ -*----------------------------------*\
  =========                 |
  \\      /  F ield         | OpenFOAM: The Open Source CFD Toolbox
   \\    /   O peration     | Website:  https://openfoam.org
    \\  /    A nd           | Version:  7
     \\/     M anipulation  |
\*---------------------------------------------------------------------------*/
FoamFile
{
    version     2.0;
    format      ascii;
    class       volVectorField;
    location    "0.05";
    object      Uavg;
}
// * * * * * * * * * * * * * * * * * * * * * * * * * * * * * * * * * * * * * //

dimensions      [0 1 -1 0 0 0 0];

internalField   nonuniform List<vector> 
27
(
(1.247276231 5.103575819e-05 -0.01018544922)
(1.247280373 2.91861958e-07 -0.01018545447)
(1.247276232 -5.045117983e-05 -0.01018544948)
(1.247242978 5.100246352e-05 -0.01023165037)
(1.247247125 2.92035749e-07 -0.01023165278)
(1.24724298 -5.04175341e-05 -0.01023165079)
(1.247201433 5.097272382e-05 -0.01029468201)
(1.24720558 2.921941673e-07 -0.01029468397)
(1.247201435 -5.038747642e-05 -0.01029468258)
(1.219586991 5.353091828e-05 -0.01121343668)
(1.219591452 2.630453828e-07 -0.01121343709)
(1.219586983 -5.300369217e-05 -0.01121343668)
(1.219524699 5.348182028e-05 -0.01126207923)
(1.219529163 2.635512102e-07 -0.01126207763)
(1.219524691 -5.295358246e-05 -0.01126207962)
(1.219453511 5.343441096e-05 -0.01132891054)
(1.219457979 2.639705486e-07 -0.01132890973)
(1.219453503 -5.290533269e-05 -0.01132891133)
(1.182685207 5.96587961e-05 -0.01316353054)
(1.1826908 2.15362974e-07 -0.01316351773)
(1.182685177 -5.922627086e-05 -0.01316353004)
(1.182560717 5.95711234e-05 -0.01321782869)
(1.182566318 2.165738768e-07 -0.01321781542)
(1.182560688 -5.913618348e-05 -0.01321782905)
(1.182425187 5.948137771e-05 -0.0132939785)
(1.182430797 2.175492759e-07 -0.01329396863)
(1.182425159 -5.904448675e-05 -0.01329397973)
)
;

boundaryField
{
    inlet
    {
        type            interstitialInletVelocity;
        inletVelocity   uniform (1.23 0 0);
        value           uniform (1.23 0 0);
    }
    outlet
    {
        type            pressureInletOutletVelocity;
        phi             alphaRhoPhi;
        value           nonuniform 0();
    }
    walls
    {
        type            noSlip;
    }
    procBoundary0to1
    {
        type            processor;
        value           nonuniform List<vector> 9((1.159952236 7.118465011e-05 -0.01571393012) (1.159961254 1.656517152e-07 -0.01571389174) (1.159952175 -7.0850052e-05 -0.01571392885) (1.159734456 7.102747479e-05 -0.01577620431) (1.159743495 1.679395056e-07 -0.01577616608) (1.159734397 -7.068833704e-05 -0.01577620464) (1.159499051 7.086162658e-05 -0.01587178181) (1.159508113 1.696858638e-07 -0.01587175366) (1.159498993 -7.051900093e-05 -0.01587178382));
    }
}


// ************************************************************************* //
