/*--------------------------------*- C++ -*----------------------------------*\
  =========                 |
  \\      /  F ield         | OpenFOAM: The Open Source CFD Toolbox
   \\    /   O peration     | Website:  https://openfoam.org
    \\  /    A nd           | Version:  7
     \\/     M anipulation  |
\*---------------------------------------------------------------------------*/
FoamFile
{
    version     2.0;
    format      ascii;
    class       surfaceScalarField;
    location    "0.045";
    object      alphaRhoPhi;
}
// * * * * * * * * * * * * * * * * * * * * * * * * * * * * * * * * * * * * * //

dimensions      [1 0 -1 0 0 0 0];

internalField   nonuniform List<scalar> 
54
(
4.919601935e-08
-3.153936664e-08
2.303556667e-05
-4.92559548e-08
-3.048103754e-08
2.348113752e-05
-3.152089e-08
2.30354655e-05
4.959697102e-08
-1.235672302e-07
2.33598512e-05
-4.961308044e-08
-1.229984387e-07
2.380614621e-05
-1.235727622e-07
2.335985867e-05
4.973902793e-08
2.28128073e-05
-4.978177055e-08
2.326407604e-05
2.281273852e-05
4.685814172e-08
-1.322732309e-07
2.311803209e-05
-4.692152357e-08
-1.297055902e-07
2.370197127e-05
-1.322611744e-07
2.311785061e-05
4.725627655e-08
-2.188743554e-07
2.339647266e-05
-4.727358173e-08
-2.169671849e-07
2.398549137e-05
-2.188829287e-07
2.339647879e-05
4.732593556e-08
2.254351788e-05
-4.737871942e-08
2.313902609e-05
2.254339016e-05
3.239969136e-08
-3.67638889e-07
-3.244014471e-08
-3.615876881e-07
-3.676342125e-07
3.224265106e-08
-4.348610871e-07
-3.22440487e-08
-4.293579536e-07
-4.348691761e-07
3.174638848e-08
-3.177741767e-08
)
;

boundaryField
{
    inlet
    {
        type            calculated;
        value           nonuniform 0();
    }
    outlet
    {
        type            calculated;
        value           nonuniform List<scalar> 9(2.344129903e-05 2.341989456e-05 2.206449308e-05 2.411707868e-05 2.410683817e-05 2.276144713e-05 2.344107122e-05 2.341991188e-05 2.206432311e-05);
    }
    walls
    {
        type            calculated;
        value           uniform 0;
    }
    procBoundary1to0
    {
        type            processor;
        value           nonuniform List<scalar> 9(-2.305148032e-05 -2.335039199e-05 -2.305145725e-05 -2.331563077e-05 -2.361252028e-05 -2.331563835e-05 -2.29844082e-05 -2.328578926e-05 -2.29843966e-05);
    }
}


// ************************************************************************* //
