/*--------------------------------*- C++ -*----------------------------------*\
  =========                 |
  \\      /  F ield         | OpenFOAM: The Open Source CFD Toolbox
   \\    /   O peration     | Website:  https://openfoam.org
    \\  /    A nd           | Version:  7
     \\/     M anipulation  |
\*---------------------------------------------------------------------------*/
FoamFile
{
    version     2.0;
    format      ascii;
    class       volScalarField;
    location    "0.045";
    object      pDyn;
}
// * * * * * * * * * * * * * * * * * * * * * * * * * * * * * * * * * * * * * //

dimensions      [1 -1 -2 0 0 0 0];

internalField   nonuniform List<scalar> 
27
(
1.586452914
1.637415128
1.58643466
1.62800144
1.679669627
1.628001175
1.57018354
1.621360748
1.570170264
1.384385154
1.446612788
1.384355221
1.422748233
1.486195547
1.422747355
1.342931358
1.405146143
1.342910013
1.299506009
1.374406342
1.299467702
1.307595029
1.383962412
1.30760035
1.179104371
1.252519498
1.179079428
)
;

boundaryField
{
    inlet
    {
        type            calculated;
        value           nonuniform 0();
    }
    outlet
    {
        type            calculated;
        value           nonuniform List<scalar> 9(1.299503517 1.307592915 1.179102862 1.37440369 1.38396016 1.252517887 1.29946521 1.307598236 1.179077919);
    }
    walls
    {
        type            calculated;
        value           uniform 0;
    }
    procBoundary1to0
    {
        type            processor;
        value           nonuniform List<scalar> 9(1.834191608 1.872417043 1.834187093 1.87060006 1.909127369 1.870601637 1.831041778 1.869469252 1.831040526);
    }
}


// ************************************************************************* //
