/*--------------------------------*- C++ -*----------------------------------*\
  =========                 |
  \\      /  F ield         | OpenFOAM: The Open Source CFD Toolbox
   \\    /   O peration     | Website:  https://openfoam.org
    \\  /    A nd           | Version:  7
     \\/     M anipulation  |
\*---------------------------------------------------------------------------*/
FoamFile
{
    version     2.0;
    format      ascii;
    class       surfaceScalarField;
    location    "0.045";
    object      phi;
}
// * * * * * * * * * * * * * * * * * * * * * * * * * * * * * * * * * * * * * //

dimensions      [0 3 -1 0 0 0 0];

internalField   nonuniform List<scalar> 
54
(
5.558956218e-08
-3.56383376e-08
2.527325177e-05
-5.565728757e-08
-3.445181586e-08
2.57650413e-05
-3.561746029e-08
2.527314273e-05
5.60581428e-08
-1.396272665e-07
2.563238591e-05
-5.607635111e-08
-1.390222103e-07
2.612577326e-05
-1.396335199e-07
2.563239446e-05
5.620374524e-08
2.502965235e-05
-5.625204394e-08
2.552762064e-05
2.502957831e-05
4.996957619e-08
-1.410582999e-07
2.429130624e-05
-5.003716991e-08
-1.383186623e-07
2.490215323e-05
-1.41045453e-07
2.429112011e-05
5.039502484e-08
-2.334172704e-07
2.458261264e-05
-5.041347986e-08
-2.313804987e-07
2.519911132e-05
-2.334264257e-07
2.45826196e-05
5.047099297e-08
2.369015913e-05
-5.052728683e-08
2.43131065e-05
2.369002802e-05
3.354982163e-08
-3.807062004e-07
-3.359171513e-08
-3.743678839e-07
-3.807014091e-07
3.338372944e-08
-4.503539204e-07
-3.338517694e-08
-4.445665929e-07
-4.503623423e-07
3.287841963e-08
-3.291055815e-08
)
;

boundaryField
{
    inlet
    {
        type            calculated;
        value           nonuniform 0();
    }
    outlet
    {
        type            calculated;
        value           nonuniform List<scalar> 9(2.427588223e-05 2.425102724e-05 2.285371584e-05 2.497075762e-05 2.495770713e-05 2.357063817e-05 2.427565228e-05 2.425104578e-05 2.285354377e-05);
    }
    walls
    {
        type            calculated;
        value           uniform 0;
    }
    procBoundary1to0
    {
        type            processor;
        value           nonuniform List<scalar> 9(-2.700108291e-05 -2.736372825e-05 -2.70010561e-05 -2.73230423e-05 -2.76853898e-05 -2.732305123e-05 -2.692263306e-05 -2.728811913e-05 -2.692261967e-05);
    }
}


// ************************************************************************* //
