/*--------------------------------*- C++ -*----------------------------------*\
  =========                 |
  \\      /  F ield         | OpenFOAM: The Open Source CFD Toolbox
   \\    /   O peration     | Website:  https://openfoam.org
    \\  /    A nd           | Version:  7
     \\/     M anipulation  |
\*---------------------------------------------------------------------------*/
FoamFile
{
    version     2.0;
    format      ascii;
    class       surfaceScalarField;
    location    "0.045";
    object      rhoPhi;
}
// * * * * * * * * * * * * * * * * * * * * * * * * * * * * * * * * * * * * * //

dimensions      [1 0 -1 0 0 0 0];

internalField   nonuniform List<scalar> 
54
(
6.412308391e-08
-4.110904663e-08
2.910089119e-05
-6.420120498e-08
-3.974327198e-08
2.967054119e-05
-4.10849638e-08
2.910076339e-05
6.466794006e-08
-1.610600202e-07
2.951728495e-05
-6.468894463e-08
-1.603738192e-07
3.008861464e-05
-1.610672307e-07
2.951729439e-05
6.483085224e-08
2.88194787e-05
-6.488656384e-08
2.939626437e-05
2.881939182e-05
5.744113445e-08
-1.621473699e-07
2.787421343e-05
-5.75188312e-08
-1.590214423e-07
2.858099731e-05
-1.621325904e-07
2.787399461e-05
5.793706534e-08
-2.683075089e-07
2.821261213e-05
-5.79582818e-08
-2.660057645e-07
2.892576344e-05
-2.683180184e-07
2.821261952e-05
5.801458033e-08
2.718150171e-05
-5.807928552e-08
2.790217045e-05
2.718134771e-05
3.84382766e-08
-4.361586395e-07
-3.848626956e-08
-4.290052587e-07
-4.361530914e-07
3.825425289e-08
-5.159095672e-07
-3.825591111e-08
-5.094112052e-07
-5.159191638e-07
3.766321252e-08
-3.770002487e-08
)
;

boundaryField
{
    inlet
    {
        type            calculated;
        value           nonuniform 0();
    }
    outlet
    {
        type            calculated;
        value           nonuniform List<scalar> 9(2.780942281e-05 2.77856592e-05 2.617605861e-05 2.861280726e-05 2.860239805e-05 2.700446884e-05 2.780915256e-05 2.778567975e-05 2.617585697e-05);
    }
    walls
    {
        type            calculated;
        value           uniform 0;
    }
    procBoundary1to0
    {
        type            processor;
        value           nonuniform List<scalar> 9(-3.121009576e-05 -3.163087696e-05 -3.121006453e-05 -3.158378876e-05 -3.200403825e-05 -3.158379903e-05 -3.111928479e-05 -3.154336489e-05 -3.111926908e-05);
    }
}


// ************************************************************************* //
