/*--------------------------------*- C++ -*----------------------------------*\
  =========                 |
  \\      /  F ield         | OpenFOAM: The Open Source CFD Toolbox
   \\    /   O peration     | Website:  https://openfoam.org
    \\  /    A nd           | Version:  7
     \\/     M anipulation  |
\*---------------------------------------------------------------------------*/
FoamFile
{
    version     2.0;
    format      ascii;
    class       volScalarField::Internal;
    location    "0.045";
    object      steelCloud:hsTrans;
}
// * * * * * * * * * * * * * * * * * * * * * * * * * * * * * * * * * * * * * //

dimensions      [1 2 -2 0 0 0 0];

value           nonuniform List<scalar> 
27
(
0.0001510755275
0.0001512397543
0.0001510755275
0.0001512397543
0.0001514183038
0.0001512397543
0.0001510755275
0.0001512397543
0.0001510755275
0.0001195992848
0.0001196692443
0.0001195992848
0.0001196692443
0.0001197433123
0.0001196692443
0.0001195992848
0.0001196692443
0.0001195992848
0.0001019936319
0.0001020257296
0.0001019936319
0.0001020257296
0.0001020590298
0.0001020257296
0.0001019936319
0.0001020257296
0.0001019936319
)
;


// ************************************************************************* //
