/*--------------------------------*- C++ -*----------------------------------*\
  =========                 |
  \\      /  F ield         | OpenFOAM: The Open Source CFD Toolbox
   \\    /   O peration     | Website:  https://openfoam.org
    \\  /    A nd           | Version:  7
     \\/     M anipulation  |
\*---------------------------------------------------------------------------*/
FoamFile
{
    version     2.0;
    format      ascii;
    class       volScalarField::Internal;
    location    "0.045";
    object      steelCloud:hsCoeff;
}
// * * * * * * * * * * * * * * * * * * * * * * * * * * * * * * * * * * * * * //

dimensions      [1 2 -2 -1 0 0 0];

value           nonuniform List<scalar> 
27
(
4.334264703e-06
4.33897627e-06
4.334264703e-06
4.33897627e-06
4.344098747e-06
4.33897627e-06
4.334264703e-06
4.33897627e-06
4.334264703e-06
3.431230506e-06
3.433237601e-06
3.431230506e-06
3.433237601e-06
3.435362566e-06
3.433237601e-06
3.431230506e-06
3.433237601e-06
3.431230506e-06
2.926135066e-06
2.927055931e-06
2.926135066e-06
2.927055931e-06
2.928011291e-06
2.927055931e-06
2.926135066e-06
2.927055931e-06
2.926135066e-06
)
;


// ************************************************************************* //
