/*--------------------------------*- C++ -*----------------------------------*\
  =========                 |
  \\      /  F ield         | OpenFOAM: The Open Source CFD Toolbox
   \\    /   O peration     | Website:  https://openfoam.org
    \\  /    A nd           | Version:  7
     \\/     M anipulation  |
\*---------------------------------------------------------------------------*/
FoamFile
{
    version     2.0;
    format      ascii;
    class       volVectorField;
    location    "0.045";
    object      Uavg;
}
// * * * * * * * * * * * * * * * * * * * * * * * * * * * * * * * * * * * * * //

dimensions      [0 1 -1 0 0 0 0];

internalField   nonuniform List<vector> 
27
(
(1.159896826 7.089560128e-05 -0.01564598135)
(1.159905795 3.256894715e-07 -0.01564594732)
(1.159896725 -7.02399009e-05 -0.01564598056)
(1.159678684 7.074429652e-05 -0.01570788072)
(1.159687676 3.283774812e-07 -0.01570784714)
(1.159678586 -7.008327232e-05 -0.01570788193)
(1.159442952 7.058392539e-05 -0.01580278253)
(1.159451967 3.303211296e-07 -0.01580275945)
(1.159442857 -6.991901998e-05 -0.01580278585)
(1.157887834 8.428226079e-05 -0.01810706266)
(1.157901349 3.216775511e-07 -0.01810699959)
(1.157887681 -8.363267646e-05 -0.01810706197)
(1.157565821 8.40519865e-05 -0.01817721417)
(1.157579378 3.254238252e-07 -0.01817715072)
(1.157565675 -8.33949775e-05 -0.01817721612)
(1.157217406 8.380583976e-05 -0.01829541798)
(1.157231005 3.281133054e-07 -0.01829537332)
(1.157217262 -8.31434546e-05 -0.01829542276)
(1.163535374 9.285382449e-05 -0.01964155532)
(1.163551909 3.281794607e-07 -0.01964146955)
(1.16353519 -9.219016731e-05 -0.01964155518)
(1.163140035 9.256928747e-05 -0.01971723272)
(1.16315663 3.324192591e-07 -0.01971714513)
(1.163139859 -9.189722281e-05 -0.01971723548)
(1.162712443 9.226518861e-05 -0.01985034409)
(1.162729096 3.35459912e-07 -0.01985028061)
(1.162712271 -9.158704309e-05 -0.01985034998)
)
;

boundaryField
{
    inlet
    {
        type            interstitialInletVelocity;
        inletVelocity   nonuniform 0();
        value           nonuniform 0();
    }
    outlet
    {
        type            pressureInletOutletVelocity;
        phi             alphaRhoPhi;
        value           nonuniform List<vector> 9((1.505807028 0.004948505735 -0.05908407173) (1.511486312 0.004853984998 0.005304939693) (1.433873465 0.004600252095 -0.07037181935) (1.548430013 -5.245294498e-06 -0.0590119701) (1.554770633 -3.045930907e-06 0.006115735706) (1.477706139 -4.683811955e-06 -0.07046282261) (1.505785133 -0.004941361032 -0.05908357447) (1.511489438 -0.004844592934 0.005305239491) (1.433858388 -0.004592534869 -0.07037368444));
    }
    walls
    {
        type            noSlip;
    }
    procBoundary1to0
    {
        type            processor;
        value           nonuniform List<vector> 9((1.182585759 5.949115268e-05 -0.01311249704) (1.182591326 3.504294152e-07 -0.01311248636) (1.182585711 -5.878761254e-05 -0.01311249729) (1.182461018 5.940598747e-05 -0.01316652002) (1.182466595 3.516030486e-07 -0.01316650902) (1.182460972 -5.870010383e-05 -0.01316652136) (1.18232526 5.931863167e-05 -0.01324226034) (1.182330845 3.524651793e-07 -0.01324225291) (1.182325214 -5.861101941e-05 -0.01324226278));
    }
}


// ************************************************************************* //
