/*--------------------------------*- C++ -*----------------------------------*\
  =========                 |
  \\      /  F ield         | OpenFOAM: The Open Source CFD Toolbox
   \\    /   O peration     | Website:  https://openfoam.org
    \\  /    A nd           | Version:  7
     \\/     M anipulation  |
\*---------------------------------------------------------------------------*/
FoamFile
{
    version     2.0;
    format      ascii;
    class       surfaceScalarField;
    location    "0.02";
    object      alphaRhoPhi;
}
// * * * * * * * * * * * * * * * * * * * * * * * * * * * * * * * * * * * * * //

dimensions      [1 0 -1 0 0 0 0];

internalField   nonuniform List<scalar> 
117
(
2.56241182e-08
3.209256043e-08
2.31147191e-05
-2.488613338e-08
3.096080236e-08
2.319203107e-05
3.172094628e-08
2.311582505e-05
2.457669962e-08
-1.859566621e-08
2.319857717e-05
-2.425498703e-08
-1.808377146e-08
2.327040014e-05
-1.839038394e-08
2.319832289e-05
2.536241568e-08
2.312844806e-05
-2.482352702e-08
2.320455645e-05
2.312919157e-05
2.754133575e-08
1.490067758e-08
2.297818552e-05
-3.072560858e-08
1.66305397e-08
2.313984388e-05
1.581554099e-08
2.297519181e-05
2.933902536e-08
-4.345271467e-08
2.313372599e-05
-3.011147209e-08
-4.270491291e-08
2.329559817e-05
-4.357897153e-08
2.313373625e-05
2.869822612e-08
2.296212632e-05
-3.106103411e-08
2.312770318e-05
2.296038366e-05
4.145171444e-08
1.04498084e-08
2.277988219e-05
-3.814578137e-08
7.978856309e-09
2.306527258e-05
9.495169865e-09
2.278114115e-05
3.947034512e-08
-6.838974524e-08
2.302684471e-05
-4.039738984e-08
-7.079352851e-08
2.330822813e-05
-6.910197793e-08
2.30256867e-05
4.080986453e-08
2.270639904e-05
-3.915447921e-08
2.299056676e-05
2.270559816e-05
4.122930051e-08
-2.384807233e-08
2.257755629e-05
-4.449156017e-08
-2.052038943e-08
2.298629466e-05
-2.215196372e-08
2.257385811e-05
4.477984945e-08
-1.073598479e-07
2.288041637e-05
-4.238324936e-08
-1.050928008e-07
2.329455813e-05
-1.059297338e-07
2.288191322e-05
4.334598109e-08
2.237087295e-05
-4.350249909e-08
2.278721202e-05
2.237134353e-05
3.987214731e-08
-9.717673495e-08
2.243167442e-05
-3.55762992e-08
-1.003007401e-07
2.295765441e-05
-9.884115374e-08
2.243393489e-05
3.717548451e-08
-1.6876548e-07
2.271073697e-05
-3.931847523e-08
-1.72376073e-07
2.323787634e-05
-1.707122608e-07
2.271037125e-05
3.865417016e-08
2.196085928e-05
-3.798487828e-08
2.248765907e-05
2.196005295e-05
2.106887517e-08
-3.0254952e-07
-2.485331845e-08
-2.973539447e-07
-2.994426053e-07
2.49820386e-08
-3.49974121e-07
-2.307972044e-08
-3.468103398e-07
-3.490979789e-07
2.442737612e-08
-2.423702741e-08
)
;

boundaryField
{
    inlet
    {
        type            calculated;
        value           nonuniform List<scalar> 9(-2.32112151e-05 -2.321120064e-05 -2.321118859e-05 -2.321121453e-05 -2.321119936e-05 -2.321118756e-05 -2.321121591e-05 -2.321120108e-05 -2.321118933e-05);
    }
    outlet
    {
        type            calculated;
        value           nonuniform List<scalar> 9(2.251258243e-05 2.253104746e-05 2.138726335e-05 2.309806974e-05 2.313102389e-05 2.198798325e-05 2.250795111e-05 2.253481376e-05 2.138752199e-05);
    }
    walls
    {
        type            calculated;
        value           uniform 0;
    }
}


// ************************************************************************* //
