/*--------------------------------*- C++ -*----------------------------------*\
  =========                 |
  \\      /  F ield         | OpenFOAM: The Open Source CFD Toolbox
   \\    /   O peration     | Website:  https://openfoam.org
    \\  /    A nd           | Version:  7
     \\/     M anipulation  |
\*---------------------------------------------------------------------------*/
FoamFile
{
    version     2.0;
    format      ascii;
    class       volScalarField;
    location    "0.02";
    object      cpavg;
}
// * * * * * * * * * * * * * * * * * * * * * * * * * * * * * * * * * * * * * //

dimensions      [0 2 -2 -1 0 0 0];

internalField   nonuniform List<scalar> 
54
(
1011.981176
1011.981176
1011.981176
1011.981181
1011.981181
1011.981181
1011.981187
1011.981187
1011.981187
1012.030448
1012.030447
1012.030448
1012.030454
1012.030453
1012.030454
1012.030462
1012.030461
1012.030462
1012.115414
1012.115412
1012.115414
1012.115422
1012.115421
1012.115422
1012.115434
1012.115433
1012.115434
1012.21326
1012.213258
1012.21326
1012.213272
1012.21327
1012.213272
1012.213288
1012.213286
1012.213288
1012.298071
1012.298069
1012.298071
1012.298087
1012.298084
1012.298087
1012.298107
1012.298105
1012.298107
1012.347192
1012.34719
1012.347192
1012.34721
1012.347208
1012.34721
1012.347234
1012.347231
1012.347234
)
;

boundaryField
{
    inlet
    {
        type            calculated;
        value           uniform 1011.338357;
    }
    outlet
    {
        type            calculated;
        value           nonuniform List<scalar> 9(1012.823072 1012.817976 1012.825918 1012.816415 1012.811367 1012.819221 1012.82307 1012.817976 1012.825919);
    }
    walls
    {
        type            calculated;
        value           nonuniform List<scalar> 
72
(
1011.503841
1011.749152
1012.028073
1012.31104
1012.579849
1012.823072
1011.503915
1011.748394
1012.025913
1012.307231
1012.574481
1012.816415
1011.503841
1011.749153
1012.028071
1012.31104
1012.579847
1012.82307
1011.50384
1011.74934
1012.028643
1012.311926
1012.581299
1012.825918
1011.503914
1011.748577
1012.026474
1012.3081
1012.575904
1012.819221
1011.50384
1011.749338
1012.028643
1012.311927
1012.581299
1012.825919
1011.503841
1011.503914
1011.50384
1011.749153
1011.748489
1011.749338
1012.028071
1012.026201
1012.028643
1012.31104
1012.307681
1012.311927
1012.579847
1012.575233
1012.581299
1012.82307
1012.817976
1012.825919
1011.503841
1011.503914
1011.50384
1011.749152
1011.748491
1011.74934
1012.028073
1012.026202
1012.028643
1012.31104
1012.307681
1012.311926
1012.579849
1012.575234
1012.581299
1012.823072
1012.817976
1012.825918
)
;
    }
}


// ************************************************************************* //
