/*--------------------------------*- C++ -*----------------------------------*\
  =========                 |
  \\      /  F ield         | OpenFOAM: The Open Source CFD Toolbox
   \\    /   O peration     | Website:  https://openfoam.org
    \\  /    A nd           | Version:  7
     \\/     M anipulation  |
\*---------------------------------------------------------------------------*/
FoamFile
{
    version     2.0;
    format      ascii;
    class       volScalarField;
    location    "0.02";
    object      kappaavg;
}
// * * * * * * * * * * * * * * * * * * * * * * * * * * * * * * * * * * * * * //

dimensions      [1 1 -3 -1 0 0 0];

internalField   nonuniform List<scalar> 
54
(
0.02770984461
0.02770984405
0.02770984459
0.02770985036
0.02770984981
0.02770985034
0.0277098572
0.02770985665
0.02770985718
0.02776995675
0.02776995585
0.02776995674
0.02776996404
0.02776996314
0.02776996402
0.0277699731
0.0277699722
0.02776997309
0.02787323198
0.02787323049
0.02787323196
0.02787324211
0.02787324062
0.02787324209
0.02787325519
0.02787325369
0.02787325517
0.02799157398
0.02799157181
0.02799157397
0.02799158779
0.02799158562
0.02799158777
0.02799160589
0.02799160371
0.02799160587
0.02809364833
0.02809364556
0.02809364831
0.02809366585
0.02809366308
0.02809366583
0.02809368882
0.02809368605
0.02809368881
0.02815255348
0.02815255036
0.02815255347
0.02815257348
0.02815257035
0.02815257347
0.02815259962
0.02815259649
0.02815259961
)
;

boundaryField
{
    inlet
    {
        type            calculated;
        value           uniform 0.02688265352;
    }
    outlet
    {
        type            calculated;
        value           nonuniform List<scalar> 9(0.02870740312 0.02870182737 0.02871051598 0.02870011864 0.02869458924 0.02870318988 0.02870740152 0.02870182678 0.02871051677);
    }
    walls
    {
        type            calculated;
        value           nonuniform List<scalar> 
72
(
0.02711019906
0.0274344049
0.0277861059
0.02812670217
0.02843686129
0.02870740312
0.02711029868
0.0274334249
0.02778344614
0.02812221732
0.0284307859
0.02870011864
0.02711019906
0.02743440599
0.02778610406
0.02812670174
0.02843685921
0.02870740152
0.02711019836
0.02743464723
0.02778680812
0.02812774528
0.02843850171
0.02871051598
0.02711029796
0.02743366144
0.02778413704
0.02812324032
0.02843239694
0.02870318988
0.02711019835
0.02743464433
0.02778680801
0.02812774571
0.02843850194
0.02871051677
0.02711019906
0.02711029831
0.02711019835
0.02743440599
0.02743354787
0.02743464433
0.02778610406
0.02778380116
0.02778680801
0.02812670174
0.02812274661
0.02812774571
0.02843685921
0.02843163751
0.02843850194
0.02870740152
0.02870182678
0.02871051677
0.02711019906
0.02711029832
0.02711019836
0.0274344049
0.02743355002
0.02743464723
0.0277861059
0.02778380228
0.02778680812
0.02812670217
0.02812274676
0.02812774528
0.02843686129
0.02843163833
0.02843850171
0.02870740312
0.02870182737
0.02871051598
)
;
    }
}


// ************************************************************************* //
