/*--------------------------------*- C++ -*----------------------------------*\
  =========                 |
  \\      /  F ield         | OpenFOAM: The Open Source CFD Toolbox
   \\    /   O peration     | Website:  https://openfoam.org
    \\  /    A nd           | Version:  7
     \\/     M anipulation  |
\*---------------------------------------------------------------------------*/
FoamFile
{
    version     2.0;
    format      ascii;
    class       volScalarField;
    location    "0.02";
    object      muavg;
}
// * * * * * * * * * * * * * * * * * * * * * * * * * * * * * * * * * * * * * //

dimensions      [1 -1 -1 0 0 0 0];

internalField   nonuniform List<scalar> 
54
(
1.890733041e-05
1.890733004e-05
1.89073304e-05
1.890733425e-05
1.890733388e-05
1.890733424e-05
1.890733882e-05
1.890733845e-05
1.890733881e-05
1.89474993e-05
1.89474987e-05
1.894749929e-05
1.894750416e-05
1.894750356e-05
1.894750415e-05
1.894751021e-05
1.894750961e-05
1.89475102e-05
1.901650289e-05
1.901650189e-05
1.901650288e-05
1.901650964e-05
1.901650864e-05
1.901650963e-05
1.901651837e-05
1.901651737e-05
1.901651835e-05
1.909556068e-05
1.909555923e-05
1.909556067e-05
1.909556988e-05
1.909556843e-05
1.909556987e-05
1.909558195e-05
1.90955805e-05
1.909558194e-05
1.916374002e-05
1.916373817e-05
1.916374001e-05
1.916375169e-05
1.916374985e-05
1.916375168e-05
1.9163767e-05
1.916376515e-05
1.916376699e-05
1.920308033e-05
1.920307825e-05
1.920308032e-05
1.920309366e-05
1.920309157e-05
1.920309365e-05
1.920311107e-05
1.920310899e-05
1.920311106e-05
)
;

boundaryField
{
    inlet
    {
        type            calculated;
        value           uniform 1.835366622e-05;
    }
    outlet
    {
        type            calculated;
        value           nonuniform List<scalar> 9(1.957329266e-05 1.956958074e-05 1.957536492e-05 1.956844318e-05 1.956476199e-05 1.957048781e-05 1.957329159e-05 1.956958035e-05 1.957536545e-05);
    }
    walls
    {
        type            calculated;
        value           nonuniform List<scalar> 
72
(
1.850625906e-05
1.872343329e-05
1.89586984e-05
1.918620049e-05
1.939307689e-05
1.957329266e-05
1.850632584e-05
1.872277725e-05
1.89569205e-05
1.9183207e-05
1.938902735e-05
1.956844318e-05
1.850625906e-05
1.872343402e-05
1.895869718e-05
1.91862002e-05
1.939307551e-05
1.957329159e-05
1.850625859e-05
1.872359551e-05
1.895916779e-05
1.918689672e-05
1.939417029e-05
1.957536492e-05
1.850632535e-05
1.872293559e-05
1.895738233e-05
1.918388983e-05
1.93901012e-05
1.957048781e-05
1.850625858e-05
1.872359357e-05
1.895916772e-05
1.9186897e-05
1.939417045e-05
1.957536545e-05
1.850625906e-05
1.850632559e-05
1.850625858e-05
1.872343402e-05
1.872285957e-05
1.872359357e-05
1.895869718e-05
1.895715781e-05
1.895916772e-05
1.91862002e-05
1.918356029e-05
1.9186897e-05
1.939307551e-05
1.9389595e-05
1.939417045e-05
1.957329159e-05
1.956958035e-05
1.957536545e-05
1.850625906e-05
1.850632559e-05
1.850625859e-05
1.872343329e-05
1.872286101e-05
1.872359551e-05
1.89586984e-05
1.895715856e-05
1.895916779e-05
1.918620049e-05
1.918356039e-05
1.918689672e-05
1.939307689e-05
1.938959555e-05
1.939417029e-05
1.957329266e-05
1.956958074e-05
1.957536492e-05
)
;
    }
}


// ************************************************************************* //
