/*--------------------------------*- C++ -*----------------------------------*\
  =========                 |
  \\      /  F ield         | OpenFOAM: The Open Source CFD Toolbox
   \\    /   O peration     | Website:  https://openfoam.org
    \\  /    A nd           | Version:  7
     \\/     M anipulation  |
\*---------------------------------------------------------------------------*/
FoamFile
{
    version     2.0;
    format      ascii;
    class       volScalarField;
    location    "0.02";
    object      p;
}
// * * * * * * * * * * * * * * * * * * * * * * * * * * * * * * * * * * * * * //

dimensions      [1 -1 -2 0 0 0 0];

internalField   nonuniform List<scalar> 
54
(
101329.3932
101329.3867
101329.3929
101329.3279
101329.3216
101329.3277
101329.2765
101329.27
101329.2762
101327.7651
101327.7607
101327.7645
101327.7002
101327.6959
101327.6997
101327.6449
101327.6405
101327.6444
101326.5442
101326.5406
101326.544
101326.4814
101326.4769
101326.4807
101326.4271
101326.4228
101326.4268
101325.9414
101325.9378
101325.9406
101325.8832
101325.8801
101325.883
101325.8324
101325.8292
101325.832
101325.5788
101325.5785
101325.5794
101325.5327
101325.5315
101325.5323
101325.4878
101325.4862
101325.4874
101325.2119
101325.2129
101325.2119
101325.184
101325.1847
101325.184
101325.1538
101325.1544
101325.1538
)
;

boundaryField
{
    inlet
    {
        type            zeroGradient;
    }
    outlet
    {
        type            totalPressure;
        rho             rho;
        psi             none;
        gamma           1;
        p0              uniform 101325;
        value           uniform 101325;
    }
    walls
    {
        type            zeroGradient;
    }
}


// ************************************************************************* //
