/*--------------------------------*- C++ -*----------------------------------*\
  =========                 |
  \\      /  F ield         | OpenFOAM: The Open Source CFD Toolbox
   \\    /   O peration     | Website:  https://openfoam.org
    \\  /    A nd           | Version:  7
     \\/     M anipulation  |
\*---------------------------------------------------------------------------*/
FoamFile
{
    version     2.0;
    format      ascii;
    class       surfaceScalarField;
    location    "0.02";
    object      phi;
}
// * * * * * * * * * * * * * * * * * * * * * * * * * * * * * * * * * * * * * //

dimensions      [0 3 -1 0 0 0 0];

internalField   nonuniform List<scalar> 
117
(
3.446431766e-08
4.316435532e-08
3.056186982e-05
-3.3471731e-08
4.169117197e-08
3.069764269e-05
4.266453477e-08
3.056333081e-05
3.309448245e-08
-2.501110576e-08
3.070634269e-05
-3.266127054e-08
-2.435124499e-08
3.083981493e-05
-2.473500121e-08
3.070600586e-05
3.41123701e-08
3.058008674e-05
-3.3387566e-08
3.071428654e-05
3.058106966e-05
3.585161706e-08
1.939680201e-08
2.896720949e-05
-3.999670661e-08
2.167381438e-08
2.919531969e-05
2.058771545e-08
2.896343479e-05
3.823622906e-08
-5.656420538e-08
2.9187764e-05
-3.924292409e-08
-5.565542487e-08
2.942035492e-05
-5.672855987e-08
2.918777469e-05
3.73576991e-08
2.894727623e-05
-4.043346702e-08
2.918030804e-05
2.894507711e-05
5.071508642e-08
1.278512773e-08
2.693003965e-05
-4.667036397e-08
9.768320701e-09
2.727710626e-05
1.161714602e-08
2.693152565e-05
4.832281883e-08
-8.367423678e-08
2.723216359e-05
-4.945777877e-08
-8.667158556e-08
2.757644326e-05
-8.454563287e-08
2.723078876e-05
4.993071362e-08
2.684414053e-05
-4.790535172e-08
2.718971861e-05
2.68431893e-05
4.7185875e-08
-2.729388069e-08
2.519485672e-05
-5.091944292e-08
-2.348859681e-08
2.564969117e-05
-2.535269613e-08
2.51907274e-05
5.125781216e-08
-1.22875593e-07
2.553265534e-05
-4.851450833e-08
-1.202973046e-07
2.599414625e-05
-1.212387743e-07
2.553432102e-05
4.961101039e-08
2.496634069e-05
-4.979014709e-08
2.54296556e-05
2.496686304e-05
4.342455424e-08
-1.058378519e-07
2.417146705e-05
-3.874596742e-08
-1.092177059e-07
2.47303853e-05
-1.076506081e-07
2.417390153e-05
4.048167891e-08
-1.838178487e-07
2.446669901e-05
-4.281525327e-08
-1.877113904e-07
2.50269322e-05
-1.859382455e-07
2.446630207e-05
4.210291682e-08
2.366832901e-05
-4.137390875e-08
2.422828887e-05
2.366745825e-05
2.246211974e-08
-3.225772701e-07
-2.649681984e-08
-3.169057306e-07
-3.192646563e-07
2.662638196e-08
-3.731856765e-07
-2.459884994e-08
-3.696570143e-07
-3.722513923e-07
2.604884659e-08
-2.584586178e-08
)
;

boundaryField
{
    inlet
    {
        type            calculated;
        value           nonuniform List<scalar> 9(-3.102855299e-05 -3.106290004e-05 -3.102855299e-05 -3.106290004e-05 -3.11013218e-05 -3.106290004e-05 -3.102855299e-05 -3.106290004e-05 -3.102855299e-05);
    }
    outlet
    {
        type            calculated;
        value           nonuniform List<scalar> 9(2.400639764e-05 2.401906364e-05 2.281183114e-05 2.462037736e-05 2.464849514e-05 2.344257091e-05 2.400145678e-05 2.402307631e-05 2.281210563e-05);
    }
    walls
    {
        type            calculated;
        value           uniform 0;
    }
}


// ************************************************************************* //
