/*--------------------------------*- C++ -*----------------------------------*\
  =========                 |
  \\      /  F ield         | OpenFOAM: The Open Source CFD Toolbox
   \\    /   O peration     | Website:  https://openfoam.org
    \\  /    A nd           | Version:  7
     \\/     M anipulation  |
\*---------------------------------------------------------------------------*/
FoamFile
{
    version     2.0;
    format      ascii;
    class       surfaceScalarField;
    location    "0.02";
    object      rhoPhi;
}
// * * * * * * * * * * * * * * * * * * * * * * * * * * * * * * * * * * * * * //

dimensions      [1 0 -1 0 0 0 0];

internalField   nonuniform List<scalar> 
117
(
4.042271963e-08
5.062685718e-08
3.570194838e-05
-3.925852919e-08
4.889871573e-08
3.586089577e-05
5.004062611e-08
3.570365658e-05
3.881582376e-08
-2.933515197e-08
3.587101773e-05
-3.830771896e-08
-2.856105567e-08
3.602722215e-05
-2.90113138e-08
3.587062455e-05
4.000987704e-08
3.572315351e-05
-3.915976601e-08
3.588026324e-05
3.57243019e-05
4.171324665e-08
2.256810073e-08
3.35335542e-05
-4.653604679e-08
2.521797187e-08
3.379966142e-05
2.395372427e-08
3.352918529e-05
4.448867744e-08
-6.581212405e-08
3.379072519e-05
-4.565998878e-08
-6.475624436e-08
3.406192426e-05
-6.600334874e-08
3.379074019e-05
4.346543666e-08
3.351011798e-05
-4.704407183e-08
3.378192787e-05
3.350757481e-05
5.841615618e-08
1.472647508e-08
3.084237084e-05
-5.375724388e-08
1.125264573e-08
3.124464888e-05
1.338114318e-08
3.084407538e-05
5.566534769e-08
-9.6378789e-08
3.119259378e-05
-5.697276637e-08
-9.984068715e-08
3.159160546e-05
-9.738250855e-08
3.119102511e-05
5.751162413e-08
3.074287979e-05
-5.517875928e-08
3.114345098e-05
3.074179544e-05
5.373910188e-08
-3.108405849e-08
2.852228549e-05
-5.799119692e-08
-2.675589428e-08
2.904526248e-05
-2.887331631e-08
2.851761357e-05
5.838704583e-08
-1.399349912e-07
2.891147568e-05
-5.52621939e-08
-1.370272176e-07
2.94420179e-05
-1.380709517e-07
2.891336708e-05
5.649802604e-08
2.82611819e-05
-5.670203477e-08
2.879370356e-05
2.826177638e-05
4.887734106e-08
-1.191242694e-07
2.704664817e-05
-4.361126819e-08
-1.229705545e-07
2.76834636e-05
-1.211646001e-07
2.704937369e-05
4.557782864e-08
-2.068814569e-07
2.738571846e-05
-4.820517473e-08
-2.113362401e-07
2.802416276e-05
-2.092679215e-07
2.738527746e-05
4.738428165e-08
2.647897002e-05
-4.656382904e-08
2.71167202e-05
2.64779978e-05
2.49956471e-08
-3.58938053e-07
-2.948542683e-08
-3.527952145e-07
-3.552520781e-07
2.963990834e-08
-4.152015498e-07
-2.738290535e-08
-4.114726924e-07
-4.141621141e-07
2.898009827e-08
-2.875427278e-08
)
;

boundaryField
{
    inlet
    {
        type            calculated;
        value           nonuniform List<scalar> 9(-3.659605782e-05 -3.663654498e-05 -3.659601602e-05 -3.663656691e-05 -3.668185877e-05 -3.663652433e-05 -3.659605909e-05 -3.663654567e-05 -3.659601718e-05);
    }
    outlet
    {
        type            calculated;
        value           nonuniform List<scalar> 9(2.670764631e-05 2.673111975e-05 2.53726318e-05 2.740384216e-05 2.74446092e-05 2.608682151e-05 2.670215197e-05 2.673558813e-05 2.537293864e-05);
    }
    walls
    {
        type            calculated;
        value           uniform 0;
    }
}


// ************************************************************************* //
