/*--------------------------------*- C++ -*----------------------------------*\
  =========                 |
  \\      /  F ield         | OpenFOAM: The Open Source CFD Toolbox
   \\    /   O peration     | Website:  https://openfoam.org
    \\  /    A nd           | Version:  7
     \\/     M anipulation  |
\*---------------------------------------------------------------------------*/
FoamFile
{
    version     2.0;
    format      ascii;
    class       volScalarField::Internal;
    location    "0.02";
    object      steelCloud:hsTrans;
}
// * * * * * * * * * * * * * * * * * * * * * * * * * * * * * * * * * * * * * //

dimensions      [1 2 -2 0 0 0 0];

value           nonuniform List<scalar> 
54
(
0.0001296812566
0.0001299299185
0.0001296812566
0.0001299299185
0.0001302074292
0.0001299299185
0.0001296812566
0.0001299299185
0.0001296812566
0.0001203339729
0.000120591466
0.0001203339729
0.000120591466
0.000120888665
0.000120591466
0.0001203339729
0.000120591466
0.0001203339729
0.0001028803507
0.0001030568642
0.0001028803506
0.0001030568642
0.0001032550622
0.0001030568642
0.0001028803506
0.0001030568642
0.0001028803507
8.249398197e-05
8.258365713e-05
8.249398197e-05
8.258365713e-05
8.268115315e-05
8.258365713e-05
8.249398197e-05
8.258365713e-05
8.249398197e-05
6.530654838e-05
6.534474937e-05
6.530654838e-05
6.534474937e-05
6.538519381e-05
6.534474938e-05
6.530654838e-05
6.534474938e-05
6.530654839e-05
5.569307598e-05
5.571060277e-05
5.569307598e-05
5.571060277e-05
5.572878612e-05
5.571060278e-05
5.569307598e-05
5.571060278e-05
5.569307598e-05
)
;


// ************************************************************************* //
