/*--------------------------------*- C++ -*----------------------------------*\
  =========                 |
  \\      /  F ield         | OpenFOAM: The Open Source CFD Toolbox
   \\    /   O peration     | Website:  https://openfoam.org
    \\  /    A nd           | Version:  7
     \\/     M anipulation  |
\*---------------------------------------------------------------------------*/
FoamFile
{
    version     2.0;
    format      ascii;
    class       volScalarField::Internal;
    location    "0.02";
    object      steelCloud:hsCoeff;
}
// * * * * * * * * * * * * * * * * * * * * * * * * * * * * * * * * * * * * * //

dimensions      [1 2 -2 -1 0 0 0];

value           nonuniform List<scalar> 
54
(
6.879010676e-06
6.892201077e-06
6.879010676e-06
6.892201077e-06
6.906921778e-06
6.892201077e-06
6.879010676e-06
6.892201077e-06
6.879010676e-06
6.38317908e-06
6.396837934e-06
6.38317908e-06
6.396837934e-06
6.412603016e-06
6.396837934e-06
6.38317908e-06
6.396837934e-06
6.38317908e-06
5.457342478e-06
5.466705731e-06
5.457342478e-06
5.466705731e-06
5.477219249e-06
5.466705731e-06
5.457342478e-06
5.466705731e-06
5.457342479e-06
4.375936796e-06
4.380693663e-06
4.375936796e-06
4.380693663e-06
4.38586539e-06
4.380693663e-06
4.375936796e-06
4.380693663e-06
4.375936796e-06
3.464220314e-06
3.466246705e-06
3.464220314e-06
3.466246705e-06
3.468392102e-06
3.466246706e-06
3.464220314e-06
3.466246706e-06
3.464220314e-06
2.954268598e-06
2.955198316e-06
2.954268598e-06
2.955198316e-06
2.956162862e-06
2.955198316e-06
2.954268598e-06
2.955198316e-06
2.954268598e-06
)
;


// ************************************************************************* //
