/*--------------------------------*- C++ -*----------------------------------*\
  =========                 |
  \\      /  F ield         | OpenFOAM: The Open Source CFD Toolbox
   \\    /   O peration     | Website:  https://openfoam.org
    \\  /    A nd           | Version:  7
     \\/     M anipulation  |
\*---------------------------------------------------------------------------*/
FoamFile
{
    version     2.0;
    format      ascii;
    class       volVectorField::Internal;
    location    "0.02";
    object      steelCloud:UTrans;
}
// * * * * * * * * * * * * * * * * * * * * * * * * * * * * * * * * * * * * * //

dimensions      [1 1 -1 0 0 0 0];

value           nonuniform List<vector> 
54
(
(-6.366962861e-08 -1.885151972e-12 -3.069484522e-10)
(-6.379171417e-08 -1.888766723e-12 -3.075370213e-10)
(-6.366962861e-08 -1.885151972e-12 -3.069484522e-10)
(-6.379171417e-08 -1.888766723e-12 -3.075370213e-10)
(-6.392796364e-08 -1.892800844e-12 -3.08193874e-10)
(-6.379171417e-08 -1.888766723e-12 -3.075370213e-10)
(-6.366962861e-08 -1.885151972e-12 -3.069484522e-10)
(-6.379171417e-08 -1.888766723e-12 -3.075370213e-10)
(-6.366962861e-08 -1.885151972e-12 -3.069484522e-10)
(-5.908039113e-08 -1.749272271e-12 -2.848239421e-10)
(-5.920681253e-08 -1.753015399e-12 -2.854334141e-10)
(-5.908039113e-08 -1.749272271e-12 -2.848239421e-10)
(-5.920681253e-08 -1.753015399e-12 -2.854334141e-10)
(-5.935272841e-08 -1.757335726e-12 -2.861368681e-10)
(-5.920681253e-08 -1.753015399e-12 -2.854334141e-10)
(-5.908039113e-08 -1.749272271e-12 -2.848239421e-10)
(-5.920681253e-08 -1.753015399e-12 -2.854334141e-10)
(-5.908039113e-08 -1.749272271e-12 -2.848239421e-10)
(-5.051118324e-08 -1.495552256e-12 -2.435121714e-10)
(-5.059784611e-08 -1.4981182e-12 -2.439299693e-10)
(-5.051118324e-08 -1.495552256e-12 -2.435121714e-10)
(-5.059784611e-08 -1.4981182e-12 -2.439299693e-10)
(-5.069515542e-08 -1.500999367e-12 -2.443990931e-10)
(-5.059784611e-08 -1.4981182e-12 -2.439299693e-10)
(-5.051118324e-08 -1.495552256e-12 -2.435121714e-10)
(-5.059784611e-08 -1.4981182e-12 -2.439299693e-10)
(-5.051118324e-08 -1.495552256e-12 -2.435121714e-10)
(-4.050208434e-08 -1.199199459e-12 -1.952587501e-10)
(-4.054611217e-08 -1.20050305e-12 -1.954710063e-10)
(-4.050208434e-08 -1.199199459e-12 -1.952587501e-10)
(-4.054611217e-08 -1.20050305e-12 -1.954710063e-10)
(-4.059397981e-08 -1.201920331e-12 -1.957017741e-10)
(-4.054611217e-08 -1.20050305e-12 -1.954710063e-10)
(-4.050208434e-08 -1.199199459e-12 -1.952587501e-10)
(-4.054611217e-08 -1.20050305e-12 -1.954710063e-10)
(-4.050208434e-08 -1.199199459e-12 -1.952587501e-10)
(-3.206356716e-08 -9.493489781e-13 -1.545770334e-10)
(-3.20823227e-08 -9.499042987e-13 -1.546674531e-10)
(-3.206356716e-08 -9.493489781e-13 -1.545770335e-10)
(-3.20823227e-08 -9.499042987e-13 -1.546674531e-10)
(-3.210217971e-08 -9.504922318e-13 -1.547631829e-10)
(-3.20823227e-08 -9.499042988e-13 -1.546674531e-10)
(-3.206356716e-08 -9.493489781e-13 -1.545770335e-10)
(-3.20823227e-08 -9.499042988e-13 -1.546674531e-10)
(-3.206356716e-08 -9.493489782e-13 -1.545770335e-10)
(-2.734363898e-08 -8.095997427e-13 -1.318224693e-10)
(-2.735224411e-08 -8.098545264e-13 -1.318639543e-10)
(-2.734363898e-08 -8.095997427e-13 -1.318224693e-10)
(-2.735224411e-08 -8.098545264e-13 -1.318639543e-10)
(-2.736117159e-08 -8.101188544e-13 -1.319069933e-10)
(-2.735224411e-08 -8.098545265e-13 -1.318639543e-10)
(-2.734363898e-08 -8.095997427e-13 -1.318224693e-10)
(-2.735224411e-08 -8.098545265e-13 -1.318639543e-10)
(-2.734363898e-08 -8.095997427e-13 -1.318224693e-10)
)
;


// ************************************************************************* //
