/*--------------------------------*- C++ -*----------------------------------*\
  =========                 |
  \\      /  F ield         | OpenFOAM: The Open Source CFD Toolbox
   \\    /   O peration     | Website:  https://openfoam.org
    \\  /    A nd           | Version:  7
     \\/     M anipulation  |
\*---------------------------------------------------------------------------*/
FoamFile
{
    version     2.0;
    format      ascii;
    class       surfaceScalarField;
    location    "0.005";
    object      alphaRhoPhi;
}
// * * * * * * * * * * * * * * * * * * * * * * * * * * * * * * * * * * * * * //

dimensions      [1 0 -1 0 0 0 0];

internalField   nonuniform List<scalar> 
54
(
3.588137586e-08
3.112071191e-08
2.205893607e-05
-3.591045115e-08
3.11697961e-08
2.216655971e-05
3.114880419e-08
2.205887818e-05
3.61814458e-08
-4.082553844e-08
2.216169516e-05
-3.618237862e-08
-4.118719798e-08
2.227065098e-05
-4.079942479e-08
2.216169652e-05
3.607129169e-08
2.204902942e-05
-3.604616096e-08
2.215685582e-05
2.204908125e-05
1.798590161e-08
2.475313085e-08
2.137926851e-05
-1.787990473e-08
2.480115285e-08
2.154069601e-05
2.466287458e-08
2.137940573e-05
1.823396179e-08
-1.143492683e-08
2.154272487e-05
-1.824456106e-08
-1.173902554e-08
2.170674516e-05
-1.152374873e-08
2.154271437e-05
1.815545191e-08
2.138252081e-05
-1.822853325e-08
2.154458273e-05
2.138241154e-05
9.779727324e-09
2.925155743e-08
-9.799963766e-09
2.888777224e-08
2.927834182e-08
1.017742834e-08
9.237188505e-09
-1.017306353e-08
8.565388713e-09
9.255272721e-09
1.026763269e-08
-1.024300037e-08
)
;

boundaryField
{
    inlet
    {
        type            calculated;
        value           nonuniform List<scalar> 9(-2.321026598e-05 -2.321025355e-05 -2.321024299e-05 -2.321026505e-05 -2.321025262e-05 -2.321024207e-05 -2.321026596e-05 -2.321025355e-05 -2.321024301e-05);
    }
    outlet
    {
        type            calculated;
        value           nonuniform 0();
    }
    walls
    {
        type            calculated;
        value           uniform 0;
    }
    procBoundary0to1
    {
        type            processor;
        value           nonuniform List<scalar> 9(2.096119565e-05 2.115234606e-05 2.096128507e-05 2.117352406e-05 2.136838029e-05 2.117352708e-05 2.100245894e-05 2.119462741e-05 2.100239305e-05);
    }
}


// ************************************************************************* //
