/*--------------------------------*- C++ -*----------------------------------*\
  =========                 |
  \\      /  F ield         | OpenFOAM: The Open Source CFD Toolbox
   \\    /   O peration     | Website:  https://openfoam.org
    \\  /    A nd           | Version:  7
     \\/     M anipulation  |
\*---------------------------------------------------------------------------*/
FoamFile
{
    version     2.0;
    format      ascii;
    class       volScalarField;
    location    "0.005";
    object      cpavg;
}
// * * * * * * * * * * * * * * * * * * * * * * * * * * * * * * * * * * * * * //

dimensions      [0 2 -2 -1 0 0 0];

internalField   nonuniform List<scalar> 
27
(
1014.093235
1014.093235
1014.093235
1014.093235
1014.093235
1014.093235
1014.093235
1014.093235
1014.093235
1014.093235
1014.093235
1014.093235
1014.093235
1014.093235
1014.093235
1014.093235
1014.093235
1014.093235
1014.093235
1014.093235
1014.093235
1014.093235
1014.093235
1014.093235
1014.093235
1014.093235
1014.093235
)
;

boundaryField
{
    inlet
    {
        type            calculated;
        value           uniform 1011.338357;
    }
    outlet
    {
        type            calculated;
        value           nonuniform 0();
    }
    walls
    {
        type            calculated;
        value           uniform 1014.093235;
    }
    procBoundary0to1
    {
        type            processor;
        value           nonuniform List<scalar> 9(1014.093235 1014.093235 1014.093235 1014.093235 1014.093235 1014.093235 1014.093235 1014.093235 1014.093235);
    }
}


// ************************************************************************* //
