/*--------------------------------*- C++ -*----------------------------------*\
  =========                 |
  \\      /  F ield         | OpenFOAM: The Open Source CFD Toolbox
   \\    /   O peration     | Website:  https://openfoam.org
    \\  /    A nd           | Version:  7
     \\/     M anipulation  |
\*---------------------------------------------------------------------------*/
FoamFile
{
    version     2.0;
    format      ascii;
    class       volScalarField;
    location    "0.005";
    object      muavg;
}
// * * * * * * * * * * * * * * * * * * * * * * * * * * * * * * * * * * * * * //

dimensions      [1 -1 -1 0 0 0 0];

internalField   nonuniform List<scalar> 
27
(
2.042700332e-05
2.042700332e-05
2.042700332e-05
2.042700332e-05
2.042700332e-05
2.042700332e-05
2.042700332e-05
2.042700332e-05
2.042700332e-05
2.042700332e-05
2.042700332e-05
2.042700332e-05
2.042700332e-05
2.042700332e-05
2.042700332e-05
2.042700332e-05
2.042700332e-05
2.042700332e-05
2.042700332e-05
2.042700332e-05
2.042700332e-05
2.042700332e-05
2.042700332e-05
2.042700332e-05
2.042700332e-05
2.042700332e-05
2.042700332e-05
)
;

boundaryField
{
    inlet
    {
        type            calculated;
        value           uniform 1.835366622e-05;
    }
    outlet
    {
        type            calculated;
        value           nonuniform 0();
    }
    walls
    {
        type            calculated;
        value           uniform 2.042700332e-05;
    }
    procBoundary0to1
    {
        type            processor;
        value           nonuniform List<scalar> 9(2.042700332e-05 2.042700332e-05 2.042700332e-05 2.042700332e-05 2.042700332e-05 2.042700332e-05 2.042700332e-05 2.042700332e-05 2.042700332e-05);
    }
}


// ************************************************************************* //
