/*--------------------------------*- C++ -*----------------------------------*\
  =========                 |
  \\      /  F ield         | OpenFOAM: The Open Source CFD Toolbox
   \\    /   O peration     | Website:  https://openfoam.org
    \\  /    A nd           | Version:  7
     \\/     M anipulation  |
\*---------------------------------------------------------------------------*/
FoamFile
{
    version     2.0;
    format      ascii;
    class       volScalarField;
    location    "0.005";
    object      p;
}
// * * * * * * * * * * * * * * * * * * * * * * * * * * * * * * * * * * * * * //

dimensions      [1 -1 -2 0 0 0 0];

internalField   nonuniform List<scalar> 
27
(
101325.2079
101325.2039
101325.2079
101325.1552
101325.1512
101325.1552
101325.1105
101325.1065
101325.1105
101325.1496
101325.148
101325.1496
101325.0998
101325.0981
101325.0998
101325.0532
101325.0516
101325.0532
101325.115
101325.1144
101325.115
101325.0668
101325.0662
101325.0668
101325.0199
101325.0193
101325.0199
)
;

boundaryField
{
    inlet
    {
        type            zeroGradient;
    }
    outlet
    {
        type            totalPressure;
        rho             rho;
        psi             none;
        gamma           1;
        p0              nonuniform 0();
        value           nonuniform 0();
    }
    walls
    {
        type            zeroGradient;
    }
    procBoundary0to1
    {
        type            processor;
        value           nonuniform List<scalar> 9(101325.0951 101325.095 101325.0951 101325.0477 101325.0476 101325.0477 101325.0006 101325.0004 101325.0006);
    }
}


// ************************************************************************* //
