/*--------------------------------*- C++ -*----------------------------------*\
  =========                 |
  \\      /  F ield         | OpenFOAM: The Open Source CFD Toolbox
   \\    /   O peration     | Website:  https://openfoam.org
    \\  /    A nd           | Version:  7
     \\/     M anipulation  |
\*---------------------------------------------------------------------------*/
FoamFile
{
    version     2.0;
    format      ascii;
    class       surfaceScalarField;
    location    "0.005";
    object      phi;
}
// * * * * * * * * * * * * * * * * * * * * * * * * * * * * * * * * * * * * * //

dimensions      [0 3 -1 0 0 0 0];

internalField   nonuniform List<scalar> 
54
(
3.190809872e-08
2.767460751e-08
1.992594329e-05
-3.193395441e-08
2.771825707e-08
2.002316049e-05
2.769958905e-08
1.992589103e-05
3.217495749e-08
-3.630480291e-08
2.001877617e-05
-3.217578702e-08
-3.662641563e-08
2.011719677e-05
-3.628158089e-08
2.00187774e-05
3.207701624e-08
1.991701415e-05
-3.205466829e-08
2.001441459e-05
1.991706095e-05
1.650734707e-08
2.271827293e-08
1.980486514e-05
-1.641006381e-08
2.276234725e-08
1.995440482e-05
2.263543629e-08
1.980499228e-05
1.673502332e-08
-1.049491141e-08
1.995629418e-05
-1.674475127e-08
-1.07740115e-08
2.010823578e-05
-1.057643164e-08
1.995628445e-05
1.666297552e-08
1.980789758e-05
-1.673004917e-08
1.99580251e-05
1.980779633e-05
9.144871194e-09
2.735268414e-08
-9.163793983e-09
2.701251404e-08
2.737772983e-08
9.516759996e-09
8.637558099e-09
-9.512678523e-09
8.009368029e-09
8.654468376e-09
9.601113608e-09
-9.578080272e-09
)
;

boundaryField
{
    inlet
    {
        type            calculated;
        value           nonuniform List<scalar> 9(-1.968e-05 -1.968e-05 -1.968e-05 -1.968e-05 -1.968e-05 -1.968e-05 -1.968e-05 -1.968e-05 -1.968e-05);
    }
    outlet
    {
        type            calculated;
        value           nonuniform 0();
    }
    walls
    {
        type            calculated;
        value           uniform 0;
    }
    procBoundary0to1
    {
        type            processor;
        value           nonuniform List<scalar> 9(1.970973721e-05 1.988947513e-05 1.970982131e-05 1.990939879e-05 2.009262137e-05 1.990940162e-05 1.974855686e-05 1.992925224e-05 1.974849487e-05);
    }
}


// ************************************************************************* //
