/*--------------------------------*- C++ -*----------------------------------*\
  =========                 |
  \\      /  F ield         | OpenFOAM: The Open Source CFD Toolbox
   \\    /   O peration     | Website:  https://openfoam.org
    \\  /    A nd           | Version:  7
     \\/     M anipulation  |
\*---------------------------------------------------------------------------*/
FoamFile
{
    version     2.0;
    format      ascii;
    class       volScalarField;
    location    "0.005";
    object      rhoavg;
}
// * * * * * * * * * * * * * * * * * * * * * * * * * * * * * * * * * * * * * //

dimensions      [1 -3 0 0 0 0 0];

internalField   nonuniform List<scalar> 
27
(
1.039809279
1.039809279
1.039809279
1.039809279
1.039809279
1.039809279
1.039809279
1.039809279
1.039809279
1.039809279
1.039809279
1.039809279
1.039809279
1.039809279
1.039809279
1.039809279
1.039809279
1.039809279
1.039809279
1.039809279
1.039809279
1.039809279
1.039809279
1.039809279
1.039809279
1.039809279
1.039809279
)
;

boundaryField
{
    inlet
    {
        type            calculated;
        value           uniform 1.179380995;
    }
    outlet
    {
        type            calculated;
        value           nonuniform 0();
    }
    walls
    {
        type            calculated;
        value           uniform 1.039809279;
    }
    procBoundary0to1
    {
        type            processor;
        value           nonuniform List<scalar> 9(1.039809279 1.039809279 1.039809279 1.039809279 1.039809279 1.039809279 1.039809279 1.039809279 1.039809279);
    }
}


// ************************************************************************* //
