/*--------------------------------*- C++ -*----------------------------------*\
  =========                 |
  \\      /  F ield         | OpenFOAM: The Open Source CFD Toolbox
   \\    /   O peration     | Website:  https://openfoam.org
    \\  /    A nd           | Version:  7
     \\/     M anipulation  |
\*---------------------------------------------------------------------------*/
FoamFile
{
    version     2.0;
    format      ascii;
    class       volScalarField;
    location    "0.005";
    object      T;
}
// * * * * * * * * * * * * * * * * * * * * * * * * * * * * * * * * * * * * * //

dimensions      [0 0 0 1 0 0 0];

internalField   nonuniform List<scalar> 
27
(
312.5382109
312.5382057
312.5382109
312.5382057
312.5382003
312.5382057
312.5382109
312.5382057
312.5382109
322.5641595
322.5641543
322.5641595
322.5641543
322.564149
322.5641543
322.5641595
322.5641543
322.5641595
328.6410104
328.6410061
328.6410104
328.6410061
328.6410016
328.6410061
328.6410104
328.6410061
328.6410104
)
;

boundaryField
{
    inlet
    {
        type            fixedValue;
        value           uniform 298;
    }
    outlet
    {
        type            zeroGradient;
    }
    walls
    {
        type            zeroGradient;
    }
    procBoundary0to1
    {
        type            processor;
        value           nonuniform List<scalar> 9(332.3250114 332.3250081 332.3250112 332.3250081 332.3250046 332.3250079 332.3250112 332.3250079 332.325011);
    }
}


// ************************************************************************* //
