/*--------------------------------*- C++ -*----------------------------------*\
  =========                 |
  \\      /  F ield         | OpenFOAM: The Open Source CFD Toolbox
   \\    /   O peration     | Website:  https://openfoam.org
    \\  /    A nd           | Version:  7
     \\/     M anipulation  |
\*---------------------------------------------------------------------------*/
FoamFile
{
    version     2.0;
    format      ascii;
    class       volVectorField;
    location    "0.005";
    object      U;
}
// * * * * * * * * * * * * * * * * * * * * * * * * * * * * * * * * * * * * * //

dimensions      [0 1 -1 0 0 0 0];

internalField   nonuniform List<vector> 
27
(
(1.231793325 0.001414813287 -0.009313352292)
(1.236710192 -8.053776607e-07 -0.009347836714)
(1.231790224 -0.001415573732 -0.009312615648)
(1.236596848 0.00142669992 -0.0002606397373)
(1.241557067 -2.387240497e-08 -0.0002551157088)
(1.236596946 -0.001426726058 -0.0002591399592)
(1.231566038 0.001420084608 -0.01214810083)
(1.236485087 6.944004565e-07 -0.01220115404)
(1.231568739 -0.001419425988 -0.01214741841)
(1.240946363 0.0009263077352 -0.01310179099)
(1.249030559 5.517161828e-06 -0.01317478054)
(1.240950315 -0.0009208659396 -0.01310766143)
(1.24869069 0.0009420887207 0.003613890348)
(1.256886844 -4.324122991e-07 0.00365209851)
(1.248690735 -0.0009425171212 0.003604306087)
(1.240243353 0.0009353921365 -0.01497667946)
(1.248346443 -4.067112529e-06 -0.01507206921)
(1.240240759 -0.0009394062264 -0.01498026492)
(1.236811472 0.0007136366927 -0.01488210454)
(1.247235307 4.083741004e-07 -0.01500243274)
(1.236819195 -0.0007132807563 -0.01488238458)
(1.247923534 0.0007378025877 0.006810998135)
(1.258534629 7.772328607e-08 0.006849975242)
(1.247922522 -0.0007377292518 0.006810277412)
(1.238126719 0.0007369447876 -0.0163278095)
(1.248603059 -3.123321957e-07 -0.01647296534)
(1.238119792 -0.00073722851 -0.01632816909)
)
;

boundaryField
{
    inlet
    {
        type            interstitialInletVelocity;
        inletVelocity   uniform (1.23 0 0);
        value           uniform (1.23 0 0);
    }
    outlet
    {
        type            pressureInletOutletVelocity;
        phi             alphaRhoPhi;
        value           nonuniform 0();
    }
    walls
    {
        type            noSlip;
    }
    procBoundary0to1
    {
        type            processor;
        value           nonuniform List<vector> 9((1.23073899 0.0003298657274 -0.01774456157) (1.242510042 -1.153854143e-06 -0.01792306025) (1.23074099 -0.0003310213757 -0.01774418099) (1.243856283 0.0003549919956 0.005601838754) (1.255868774 -7.828737532e-07 0.005612199012) (1.243856253 -0.0003557593468 0.005602788124) (1.233365302 0.0003667309594 -0.01843645519) (1.245198596 -2.04469095e-07 -0.01862812525) (1.233363608 -0.0003669218438 -0.01843587099));
    }
}


// ************************************************************************* //
