/*--------------------------------*- C++ -*----------------------------------*\
  =========                 |
  \\      /  F ield         | OpenFOAM: The Open Source CFD Toolbox
   \\    /   O peration     | Website:  https://openfoam.org
    \\  /    A nd           | Version:  7
     \\/     M anipulation  |
\*---------------------------------------------------------------------------*/
FoamFile
{
    version     2.0;
    format      ascii;
    class       volScalarField;
    location    "0.04";
    object      kappaavg;
}
// * * * * * * * * * * * * * * * * * * * * * * * * * * * * * * * * * * * * * //

dimensions      [1 1 -3 -1 0 0 0];

internalField   nonuniform List<scalar> 
54
(
0.02726592989
0.02726592977
0.02726592991
0.02726593376
0.02726593364
0.02726593378
0.02726593788
0.02726593776
0.0272659379
0.02728836891
0.02728836856
0.02728836894
0.02728837491
0.02728837456
0.02728837494
0.02728838164
0.02728838128
0.02728838166
0.02732689841
0.02732689756
0.02732689846
0.02732690893
0.02732690808
0.02732690898
0.02732692117
0.02732692031
0.02732692122
0.02737111197
0.02737111034
0.02737111205
0.02737112926
0.02737112763
0.02737112934
0.0273711498
0.02737114816
0.02737114988
0.02740939298
0.02740939046
0.02740939309
0.02740941788
0.02740941535
0.02740941799
0.02740944779
0.02740944524
0.02740944789
0.02743158266
0.02743157947
0.02743158279
0.02743161294
0.02743160973
0.02743161305
0.02743164951
0.02743164628
0.02743164962
)
;

boundaryField
{
    inlet
    {
        type            calculated;
        value           uniform 0.02688265352;
    }
    outlet
    {
        type            calculated;
        value           nonuniform List<scalar> 9(0.02765629948 0.02765016638 0.02766219116 0.02764696957 0.02764111867 0.02765250136 0.0276563115 0.0276501666 0.02766219958);
    }
    walls
    {
        type            calculated;
        value           nonuniform List<scalar> 
72
(
0.02703462347
0.02717441306
0.02729802085
0.02741108279
0.02752631422
0.02765629948
0.02703490839
0.02717449199
0.02729727137
0.02740864489
0.02752106826
0.02764696957
0.02703462347
0.02717441118
0.02729802254
0.02741108604
0.02752632558
0.0276563115
0.02703462322
0.02717430929
0.02729798818
0.02741153408
0.02752825592
0.02766219116
0.02703490813
0.02717438882
0.02729723008
0.02740906503
0.02752288912
0.02765250136
0.02703462321
0.02717430809
0.02729798898
0.02741153794
0.02752826192
0.02766219958
0.02703462347
0.02703490824
0.02703462321
0.02717441118
0.02717443891
0.02717430809
0.02729802254
0.02729724627
0.02729798898
0.02741108604
0.02740886768
0.02741153794
0.02752632558
0.02752208641
0.02752826192
0.0276563115
0.0276501666
0.02766219958
0.02703462347
0.02703490824
0.02703462322
0.02717441306
0.02717443885
0.02717430929
0.02729802085
0.02729724633
0.02729798818
0.02741108279
0.02740886545
0.02741153408
0.02752631422
0.02752208584
0.02752825592
0.02765629948
0.02765016638
0.02766219116
)
;
    }
}


// ************************************************************************* //
