/*--------------------------------*- C++ -*----------------------------------*\
  =========                 |
  \\      /  F ield         | OpenFOAM: The Open Source CFD Toolbox
   \\    /   O peration     | Website:  https://openfoam.org
    \\  /    A nd           | Version:  7
     \\/     M anipulation  |
\*---------------------------------------------------------------------------*/
FoamFile
{
    version     2.0;
    format      ascii;
    class       surfaceScalarField;
    location    "0.04";
    object      phi;
}
// * * * * * * * * * * * * * * * * * * * * * * * * * * * * * * * * * * * * * //

dimensions      [0 3 -1 0 0 0 0];

internalField   nonuniform List<scalar> 
117
(
3.556512342e-08
4.916890202e-08
3.061039996e-05
-3.552395013e-08
4.84835008e-08
3.075002722e-05
4.916116731e-08
3.061044425e-05
3.501604267e-08
-2.236323092e-08
3.076364859e-05
-3.499630178e-08
-2.182399889e-08
3.090457989e-05
-2.236166057e-08
3.076365972e-05
3.577682023e-08
3.063643927e-05
-3.574383774e-08
3.077655649e-05
3.063647117e-05
4.014770257e-08
2.628625255e-08
2.902481571e-05
-4.018526187e-08
2.607473163e-08
2.926748151e-05
2.62992681e-08
2.902481079e-05
4.012467574e-08
-5.475149982e-08
2.926750069e-05
-4.0121061e-08
-5.464075307e-08
2.951004382e-05
-5.475189535e-08
2.926752315e-05
4.046295043e-08
2.902170377e-05
-4.048518155e-08
2.926562793e-05
2.902171308e-05
5.102174736e-08
1.031138293e-08
2.700018305e-05
-5.107816292e-08
1.070488414e-08
2.736181384e-05
1.031518029e-08
2.700011481e-05
5.142739285e-08
-8.973541819e-08
2.732076438e-05
-5.147116595e-08
-8.975425636e-08
2.768209178e-05
-8.974391331e-08
2.732075732e-05
5.144722324e-08
2.692061343e-05
-5.151029903e-08
2.72850314e-05
2.692055344e-05
5.539365949e-08
-3.613985812e-08
2.527629456e-05
-5.553194005e-08
-3.498517924e-08
2.57666297e-05
-3.609273923e-08
2.527605584e-05
5.59226504e-08
-1.400704753e-07
2.56335294e-05
-5.595533321e-08
-1.395408737e-07
2.612553761e-05
-1.40077886e-07
2.563353915e-05
5.603795705e-08
2.503074713e-05
-5.61274254e-08
2.552716962e-05
2.50305975e-05
4.974946547e-08
-1.409449002e-07
2.429837161e-05
-4.982058227e-08
-1.383917429e-07
2.49073318e-05
-1.409368502e-07
2.429806468e-05
5.020105432e-08
-2.33196881e-07
2.45878492e-05
-5.022810694e-08
-2.313865881e-07
2.520248346e-05
-2.332106204e-07
2.458785251e-05
5.026762099e-08
2.369571643e-05
-5.033735139e-08
2.431635214e-05
2.369549264e-05
3.31607104e-08
-3.793780788e-07
-3.319085693e-08
-3.734669265e-07
-3.793669692e-07
3.308288128e-08
-4.483632735e-07
-3.30598439e-08
-4.43060473e-07
-4.483757574e-07
3.263907721e-08
-3.265371026e-08
)
;

boundaryField
{
    inlet
    {
        type            calculated;
        value           nonuniform List<scalar> 9(-3.102855299e-05 -3.106290004e-05 -3.102855299e-05 -3.106290004e-05 -3.11013218e-05 -3.106290004e-05 -3.102855299e-05 -3.106290004e-05 -3.102855299e-05);
    }
    outlet
    {
        type            calculated;
        value           nonuniform List<scalar> 9(2.427365194e-05 2.424768852e-05 2.285308336e-05 2.496606546e-05 2.495180944e-05 2.356665848e-05 2.427330821e-05 2.42477385e-05 2.285283546e-05);
    }
    walls
    {
        type            calculated;
        value           uniform 0;
    }
}


// ************************************************************************* //
