/*--------------------------------*- C++ -*----------------------------------*\
  =========                 |
  \\      /  F ield         | OpenFOAM: The Open Source CFD Toolbox
   \\    /   O peration     | Website:  https://openfoam.org
    \\  /    A nd           | Version:  7
     \\/     M anipulation  |
\*---------------------------------------------------------------------------*/
FoamFile
{
    version     2.0;
    format      ascii;
    class       surfaceScalarField;
    location    "0.04";
    object      rhoPhi;
}
// * * * * * * * * * * * * * * * * * * * * * * * * * * * * * * * * * * * * * //

dimensions      [1 0 -1 0 0 0 0];

internalField   nonuniform List<scalar> 
117
(
4.166984671e-08
5.760868542e-08
3.575663022e-05
-4.162160606e-08
5.680488351e-08
3.591942578e-05
5.759962307e-08
3.575668266e-05
4.102594917e-08
-2.620183752e-08
3.593536025e-05
-4.10028201e-08
-2.556970863e-08
3.609957495e-05
-2.619999762e-08
3.593537329e-05
4.191783204e-08
3.578709057e-05
-4.187918819e-08
3.595045888e-05
3.57871283e-05
4.675527337e-08
3.061251341e-08
3.37151275e-05
-4.679901516e-08
3.036598025e-08
3.399737894e-05
3.062767173e-08
3.371512233e-05
4.672823783e-08
-6.376276117e-08
3.399745587e-05
-4.672402824e-08
-6.363336985e-08
3.427939383e-05
-6.376322269e-08
3.39974821e-05
4.71225757e-08
3.371160559e-05
-4.714846635e-08
3.3995325e-05
3.371161689e-05
5.911504014e-08
1.194702752e-08
3.121559918e-05
-5.918040437e-08
1.240323732e-08
3.16354377e-05
1.195142724e-08
3.121551911e-05
5.958650019e-08
-1.039698107e-07
3.158788875e-05
-5.963721821e-08
-1.039940789e-07
3.200719272e-05
-1.039796538e-07
3.158788012e-05
5.960812918e-08
3.112341442e-05
-5.968121054e-08
3.154649075e-05
3.112334398e-05
6.390713528e-08
-4.169406456e-08
2.910305309e-05
-6.406666603e-08
-4.036516548e-08
2.967147535e-05
-4.163970195e-08
2.910277346e-05
6.452215713e-08
-1.615962542e-07
2.951760593e-05
-6.455986458e-08
-1.609982741e-07
3.008780137e-05
-1.61604795e-07
2.951761616e-05
6.464956862e-08
2.881920694e-05
-6.475278365e-08
2.939465991e-05
2.881903127e-05
5.717473814e-08
-1.619786669e-07
2.786540252e-05
-5.725646193e-08
-1.590716332e-07
2.857069718e-05
-1.61969392e-07
2.786504154e-05
5.770163098e-08
-2.679892324e-07
2.820223718e-05
-5.773272464e-08
-2.659547966e-07
2.891393723e-05
-2.680049955e-07
2.820224012e-05
5.776666992e-08
2.717073851e-05
-5.784679815e-08
2.788941167e-05
2.717047605e-05
3.795666826e-08
-4.342233312e-07
-3.799116747e-08
-4.275879275e-07
-4.342105254e-07
3.787505596e-08
-5.131309318e-07
-3.784868099e-08
-5.07220105e-07
-5.131451428e-07
3.735248719e-08
-3.73692284e-08
)
;

boundaryField
{
    inlet
    {
        type            calculated;
        value           nonuniform List<scalar> 9(-3.659598381e-05 -3.663646946e-05 -3.659594056e-05 -3.663649128e-05 -3.668178278e-05 -3.663644796e-05 -3.659598381e-05 -3.663646947e-05 -3.659594056e-05);
    }
    outlet
    {
        type            calculated;
        value           nonuniform List<scalar> 9(2.777992928e-05 2.775585647e-05 2.614902902e-05 2.858123063e-05 2.857039544e-05 2.6974253e-05 2.777952517e-05 2.775591289e-05 2.614873836e-05);
    }
    walls
    {
        type            calculated;
        value           uniform 0;
    }
}


// ************************************************************************* //
