/*--------------------------------*- C++ -*----------------------------------*\
  =========                 |
  \\      /  F ield         | OpenFOAM: The Open Source CFD Toolbox
   \\    /   O peration     | Website:  https://openfoam.org
    \\  /    A nd           | Version:  7
     \\/     M anipulation  |
\*---------------------------------------------------------------------------*/
FoamFile
{
    version     2.0;
    format      ascii;
    class       volVectorField::Internal;
    location    "0.04";
    object      steelCloud:UTrans;
}
// * * * * * * * * * * * * * * * * * * * * * * * * * * * * * * * * * * * * * //

dimensions      [1 1 -1 0 0 0 0];

value           nonuniform List<vector> 
54
(
(-6.377170082e-08 9.008477529e-14 -2.887592044e-10)
(-6.389398211e-08 9.02575115e-14 -2.893128959e-10)
(-6.377170082e-08 9.008477528e-14 -2.887592044e-10)
(-6.389398211e-08 9.02575115e-14 -2.893128959e-10)
(-6.403045e-08 9.045028792e-14 -2.899308246e-10)
(-6.389398211e-08 9.02575115e-14 -2.893128959e-10)
(-6.377170082e-08 9.008477528e-14 -2.887592044e-10)
(-6.389398211e-08 9.02575115e-14 -2.893128959e-10)
(-6.377170082e-08 9.008477528e-14 -2.887592044e-10)
(-5.917510609e-08 8.359156281e-14 -2.679457555e-10)
(-5.930173016e-08 8.377043371e-14 -2.685191112e-10)
(-5.917510608e-08 8.359156281e-14 -2.679457555e-10)
(-5.930173016e-08 8.377043371e-14 -2.685191112e-10)
(-5.944787997e-08 8.397688692e-14 -2.691808797e-10)
(-5.930173016e-08 8.37704337e-14 -2.685191112e-10)
(-5.917510608e-08 8.359156281e-14 -2.679457555e-10)
(-5.930173016e-08 8.37704337e-14 -2.685191112e-10)
(-5.917510609e-08 8.359156281e-14 -2.679457555e-10)
(-5.059216044e-08 7.14671766e-14 -2.290820507e-10)
(-5.067896224e-08 7.158979401e-14 -2.294750905e-10)
(-5.059216044e-08 7.14671766e-14 -2.290820507e-10)
(-5.067896224e-08 7.158979401e-14 -2.294750905e-10)
(-5.077642756e-08 7.172747485e-14 -2.299164149e-10)
(-5.067896224e-08 7.158979401e-14 -2.294750905e-10)
(-5.059216044e-08 7.14671766e-14 -2.290820507e-10)
(-5.067896224e-08 7.158979401e-14 -2.294750905e-10)
(-5.059216044e-08 7.14671766e-14 -2.290820507e-10)
(-4.056701542e-08 5.730551986e-14 -1.836880457e-10)
(-4.061111383e-08 5.736781388e-14 -1.83887724e-10)
(-4.056701542e-08 5.730551986e-14 -1.836880457e-10)
(-4.061111383e-08 5.736781388e-14 -1.83887724e-10)
(-4.065905821e-08 5.743554076e-14 -1.841048169e-10)
(-4.061111383e-08 5.736781388e-14 -1.83887724e-10)
(-4.056701542e-08 5.730551986e-14 -1.836880457e-10)
(-4.061111383e-08 5.736781388e-14 -1.83887724e-10)
(-4.056701542e-08 5.730551986e-14 -1.836880457e-10)
(-3.211496999e-08 4.536604509e-14 -1.45417059e-10)
(-3.21337556e-08 4.53925819e-14 -1.455021206e-10)
(-3.211496999e-08 4.536604509e-14 -1.45417059e-10)
(-3.21337556e-08 4.53925819e-14 -1.455021206e-10)
(-3.215364444e-08 4.542067716e-14 -1.455921776e-10)
(-3.21337556e-08 4.53925819e-14 -1.455021206e-10)
(-3.211496999e-08 4.536604509e-14 -1.45417059e-10)
(-3.21337556e-08 4.53925819e-14 -1.455021206e-10)
(-3.211496999e-08 4.536604509e-14 -1.45417059e-10)
(-2.738747504e-08 3.868792117e-14 -1.24010892e-10)
(-2.739609396e-08 3.870009639e-14 -1.240499186e-10)
(-2.738747504e-08 3.868792117e-14 -1.24010892e-10)
(-2.739609396e-08 3.870009639e-14 -1.240499186e-10)
(-2.740503576e-08 3.871272769e-14 -1.240904072e-10)
(-2.739609397e-08 3.870009639e-14 -1.240499186e-10)
(-2.738747504e-08 3.868792117e-14 -1.24010892e-10)
(-2.739609397e-08 3.870009639e-14 -1.240499186e-10)
(-2.738747504e-08 3.868792117e-14 -1.24010892e-10)
)
;


// ************************************************************************* //
