/*--------------------------------*- C++ -*----------------------------------*\
  =========                 |
  \\      /  F ield         | OpenFOAM: The Open Source CFD Toolbox
   \\    /   O peration     | Website:  https://openfoam.org
    \\  /    A nd           | Version:  7
     \\/     M anipulation  |
\*---------------------------------------------------------------------------*/
FoamFile
{
    version     2.0;
    format      ascii;
    class       volVectorField;
    location    "0.04";
    object      U;
}
// * * * * * * * * * * * * * * * * * * * * * * * * * * * * * * * * * * * * * //

dimensions      [0 1 -1 0 0 0 0];

internalField   nonuniform List<vector> 
54
(
(1.712087934 0.001648875488 -0.007624689597)
(1.719114058 9.049847276e-07 -0.00767108168)
(1.712089293 -0.001646048423 -0.007625399347)
(1.719509059 0.001623622563 0.003470734407)
(1.726696944 1.77808558e-07 0.003490929671)
(1.719510098 -0.001621483725 0.003470488719)
(1.71284394 0.001641781918 -0.01110076714)
(1.719886514 6.246600733e-07 -0.01110437673)
(1.7128453 -0.001639224008 -0.01110033807)
(1.802141663 0.002956134399 -0.01506465683)
(1.813974021 -2.642884113e-06 -0.01511982511)
(1.802145199 -0.002954054298 -0.01506311787)
(1.814539953 0.002935792498 0.00818359088)
(1.826375228 -1.143986559e-06 0.008245773448)
(1.814540686 -0.002932206619 0.008184059274)
(1.803147215 0.002928484361 -0.02134011301)
(1.815026481 -2.072250249e-06 -0.02138397608)
(1.803149591 -0.002925848198 -0.02134098622)
(1.779230825 0.004157189268 -0.02272091657)
(1.797658744 -4.485298841e-06 -0.02277089671)
(1.779228654 -0.004154118189 -0.02272049099)
(1.796876303 0.004147249873 0.01315795521)
(1.815272915 -3.931447875e-06 0.01329051811)
(1.796877066 -0.004143644979 0.01315763013)
(1.777564444 0.004088992737 -0.03163068941)
(1.796104962 -4.711902902e-06 -0.03173278585)
(1.777563828 -0.004086175763 -0.03163142742)
(1.658104197 0.005025469952 -0.03168405079)
(1.684471332 -8.487907259e-06 -0.03171947864)
(1.658094778 -0.005024092788 -0.03168079944)
(1.679836146 0.005015024423 0.01661652787)
(1.706227201 -4.519268321e-06 0.01686957192)
(1.679836036 -0.00500962691 0.01661842895)
(1.649345875 0.004902262558 -0.04250282352)
(1.67595877 -6.610938652e-06 -0.04264653714)
(1.64933891 -0.004899001362 -0.04250501976)
(1.55161406 0.005366528133 -0.04321108165)
(1.585999595 -6.637652983e-06 -0.04321053602)
(1.551597512 -0.005361675187 -0.04321032062)
(1.573385037 0.005320449751 0.01579700586)
(1.607959855 -4.839880465e-06 0.01624528962)
(1.5733846 -0.005313800048 0.01579695298)
(1.527871804 0.005128975783 -0.05464389679)
(1.562769302 -6.545487411e-06 -0.05479968455)
(1.527859722 -0.005124073008 -0.05464572573)
(1.505807028 0.004948505735 -0.05908407173)
(1.548430013 -5.245294498e-06 -0.0590119701)
(1.505785133 -0.004941361032 -0.05908357447)
(1.511486312 0.004853984998 0.005304939693)
(1.554770633 -3.045930907e-06 0.006115735706)
(1.511489438 -0.004844592934 0.005305239491)
(1.433873465 0.004600252095 -0.07037181935)
(1.477706139 -4.683811955e-06 -0.07046282261)
(1.433858388 -0.004592534869 -0.07037368444)
)
;

boundaryField
{
    inlet
    {
        type            interstitialInletVelocity;
        inletVelocity   uniform (1.23 0 0);
        value           nonuniform List<vector> 9((1.939284562 0 0) (1.941431252 0 0) (1.939284562 0 0) (1.941431252 0 0) (1.943832612 0 0) (1.941431252 0 0) (1.939284562 0 0) (1.941431252 0 0) (1.939284562 0 0));
    }
    outlet
    {
        type            pressureInletOutletVelocity;
        phi             alphaRhoPhi;
        value           nonuniform List<vector> 9((1.505807028 0.004948505735 -0.05908407173) (1.511486312 0.004853984998 0.005304939693) (1.433873465 0.004600252095 -0.07037181935) (1.548430013 -5.245294498e-06 -0.0590119701) (1.554770633 -3.045930907e-06 0.006115735706) (1.477706139 -4.683811955e-06 -0.07046282261) (1.505785133 -0.004941361032 -0.05908357447) (1.511489438 -0.004844592934 0.005305239491) (1.433858388 -0.004592534869 -0.07037368444));
    }
    walls
    {
        type            noSlip;
    }
}


// ************************************************************************* //
