/*--------------------------------*- C++ -*----------------------------------*\
  =========                 |
  \\      /  F ield         | OpenFOAM: The Open Source CFD Toolbox
   \\    /   O peration     | Website:  https://openfoam.org
    \\  /    A nd           | Version:  7
     \\/     M anipulation  |
\*---------------------------------------------------------------------------*/
FoamFile
{
    version     2.0;
    format      ascii;
    class       surfaceScalarField;
    location    "0.08";
    object      alphaRhoPhi;
}
// * * * * * * * * * * * * * * * * * * * * * * * * * * * * * * * * * * * * * //

dimensions      [1 0 -1 0 0 0 0];

internalField   nonuniform List<scalar> 
54
(
4.95309727e-08
-3.0732255e-08
2.302572802e-05
-4.952922743e-08
-2.962444213e-08
2.34735315e-05
-3.07323362e-08
2.302572867e-05
4.989679535e-08
-1.230941871e-07
2.335260184e-05
-4.989581573e-08
-1.224651165e-07
2.380113996e-05
-1.230945153e-07
2.33526006e-05
5.005514988e-08
2.280490434e-05
-5.005331743e-08
2.325854699e-05
2.280490299e-05
4.72380903e-08
-1.315612159e-07
2.311006492e-05
-4.723946678e-08
-1.288054867e-07
2.369682863e-05
-1.315602366e-07
2.311006311e-05
4.758292128e-08
-2.183442395e-07
2.339181622e-05
-4.758093383e-08
-2.162004357e-07
2.39837074e-05
-2.183439764e-07
2.33918162e-05
4.766068113e-08
2.253891316e-05
-4.766019694e-08
2.313768013e-05
2.253891317e-05
3.298702072e-08
-3.677825528e-07
-3.298703815e-08
-3.611546812e-07
-3.677832738e-07
3.269914256e-08
-4.357873796e-07
-3.269878492e-08
-4.296181209e-07
-4.357876852e-07
3.211335626e-08
-3.211352297e-08
)
;

boundaryField
{
    inlet
    {
        type            calculated;
        value           nonuniform 0();
    }
    outlet
    {
        type            calculated;
        value           nonuniform List<scalar> 9(2.344491774e-05 2.342717677e-05 2.207106979e-05 2.412401227e-05 2.411762225e-05 2.277234312e-05 2.344491726e-05 2.342717652e-05 2.207106823e-05);
    }
    walls
    {
        type            calculated;
        value           uniform 0;
    }
    procBoundary1to0
    {
        type            processor;
        value           nonuniform List<scalar> 9(-2.304454253e-05 -2.33448704e-05 -2.304454002e-05 -2.331015963e-05 -2.360852085e-05 -2.331015978e-05 -2.297806722e-05 -2.328092892e-05 -2.297806799e-05);
    }
}


// ************************************************************************* //
