/*--------------------------------*- C++ -*----------------------------------*\
  =========                 |
  \\      /  F ield         | OpenFOAM: The Open Source CFD Toolbox
   \\    /   O peration     | Website:  https://openfoam.org
    \\  /    A nd           | Version:  7
     \\/     M anipulation  |
\*---------------------------------------------------------------------------*/
FoamFile
{
    version     2.0;
    format      ascii;
    class       volScalarField;
    location    "0.08";
    object      cpavg;
}
// * * * * * * * * * * * * * * * * * * * * * * * * * * * * * * * * * * * * * //

dimensions      [0 2 -2 -1 0 0 0];

internalField   nonuniform List<scalar> 
27
(
1011.693277
1011.693276
1011.693277
1011.693283
1011.693282
1011.693283
1011.693291
1011.69329
1011.693291
1011.717877
1011.717876
1011.717877
1011.717886
1011.717885
1011.717886
1011.717897
1011.717896
1011.717897
1011.73191
1011.731908
1011.73191
1011.731921
1011.731919
1011.731921
1011.731934
1011.731933
1011.731934
)
;

boundaryField
{
    inlet
    {
        type            calculated;
        value           nonuniform 0();
    }
    outlet
    {
        type            calculated;
        value           nonuniform List<scalar> 9(1011.854691 1011.852112 1011.856862 1011.850898 1011.848491 1011.852913 1011.854691 1011.852112 1011.856862);
    }
    walls
    {
        type            calculated;
        value           nonuniform List<scalar> 
36
(
1011.738556
1011.801234
1011.854691
1011.737168
1011.798709
1011.850898
1011.738556
1011.801234
1011.854691
1011.738701
1011.802005
1011.856862
1011.737293
1011.799421
1011.852913
1011.738701
1011.802004
1011.856862
1011.738556
1011.737238
1011.738701
1011.801234
1011.799128
1011.802004
1011.854691
1011.852112
1011.856862
1011.738556
1011.737238
1011.738701
1011.801234
1011.799128
1011.802005
1011.854691
1011.852112
1011.856862
)
;
    }
    procBoundary1to0
    {
        type            processor;
        value           nonuniform List<scalar> 9(1011.664284 1011.664284 1011.664284 1011.664288 1011.664287 1011.664288 1011.664292 1011.664292 1011.664292);
    }
}


// ************************************************************************* //
