/*--------------------------------*- C++ -*----------------------------------*\
  =========                 |
  \\      /  F ield         | OpenFOAM: The Open Source CFD Toolbox
   \\    /   O peration     | Website:  https://openfoam.org
    \\  /    A nd           | Version:  7
     \\/     M anipulation  |
\*---------------------------------------------------------------------------*/
FoamFile
{
    version     2.0;
    format      ascii;
    class       volScalarField;
    location    "0.08";
    object      muavg;
}
// * * * * * * * * * * * * * * * * * * * * * * * * * * * * * * * * * * * * * //

dimensions      [1 -1 -1 0 0 0 0];

internalField   nonuniform List<scalar> 
27
(
1.867338987e-05
1.86733892e-05
1.867338987e-05
1.867339496e-05
1.867339429e-05
1.867339496e-05
1.867340135e-05
1.867340067e-05
1.867340135e-05
1.869498098e-05
1.869498e-05
1.869498098e-05
1.869498852e-05
1.869498754e-05
1.869498852e-05
1.869499797e-05
1.869499697e-05
1.869499797e-05
1.870728139e-05
1.870728019e-05
1.870728138e-05
1.870729066e-05
1.870728946e-05
1.870729066e-05
1.870730224e-05
1.870730103e-05
1.870730224e-05
)
;

boundaryField
{
    inlet
    {
        type            calculated;
        value           nonuniform 0();
    }
    outlet
    {
        type            calculated;
        value           nonuniform List<scalar> 9(1.881383151e-05 1.88116429e-05 1.881567248e-05 1.881061178e-05 1.880856826e-05 1.881232252e-05 1.881383146e-05 1.88116428e-05 1.881567242e-05);
    }
    walls
    {
        type            calculated;
        value           nonuniform List<scalar> 
36
(
1.871426051e-05
1.876826016e-05
1.881383151e-05
1.871305691e-05
1.876609673e-05
1.881061178e-05
1.871426044e-05
1.876826006e-05
1.881383146e-05
1.871438583e-05
1.876892039e-05
1.881567248e-05
1.87131651e-05
1.876670703e-05
1.881232252e-05
1.871438575e-05
1.876892029e-05
1.881567242e-05
1.871426044e-05
1.871311766e-05
1.871438575e-05
1.876826006e-05
1.876645623e-05
1.876892029e-05
1.881383146e-05
1.88116428e-05
1.881567242e-05
1.871426051e-05
1.871311774e-05
1.871438583e-05
1.876826016e-05
1.876645633e-05
1.876892039e-05
1.881383151e-05
1.88116429e-05
1.881567248e-05
)
;
    }
    procBoundary1to0
    {
        type            processor;
        value           nonuniform List<scalar> 9(1.864789889e-05 1.864789853e-05 1.864789889e-05 1.864790182e-05 1.864790146e-05 1.864790182e-05 1.864790546e-05 1.864790509e-05 1.864790546e-05);
    }
}


// ************************************************************************* //
