/*--------------------------------*- C++ -*----------------------------------*\
  =========                 |
  \\      /  F ield         | OpenFOAM: The Open Source CFD Toolbox
   \\    /   O peration     | Website:  https://openfoam.org
    \\  /    A nd           | Version:  7
     \\/     M anipulation  |
\*---------------------------------------------------------------------------*/
FoamFile
{
    version     2.0;
    format      ascii;
    class       surfaceScalarField;
    location    "0.08";
    object      phi;
}
// * * * * * * * * * * * * * * * * * * * * * * * * * * * * * * * * * * * * * //

dimensions      [0 3 -1 0 0 0 0];

internalField   nonuniform List<scalar> 
54
(
5.598791368e-08
-3.473863906e-08
2.526966302e-05
-5.59859408e-08
-3.349555325e-08
2.576427937e-05
-3.473873071e-08
2.52696636e-05
5.641707591e-08
-1.391418753e-07
2.563189616e-05
-5.641596818e-08
-1.384685292e-07
2.612812135e-05
-1.391422458e-07
2.563189466e-05
5.658089776e-08
2.502795526e-05
-5.657882629e-08
2.552891045e-05
2.502795365e-05
5.038606187e-08
-1.403301268e-07
2.428159194e-05
-5.038752991e-08
-1.373915384e-07
2.48962991e-05
-1.403290813e-07
2.428158988e-05
5.075533276e-08
-2.329023596e-07
2.457691679e-05
-5.075321263e-08
-2.306166327e-07
2.519732268e-05
-2.329020774e-07
2.457691659e-05
5.083886884e-08
2.368334036e-05
-5.083835219e-08
2.431061558e-05
2.36833402e-05
3.414779971e-08
-3.807366679e-07
-3.414781764e-08
-3.738246603e-07
-3.807374114e-07
3.38473764e-08
-4.511626453e-07
-3.384700606e-08
-4.447136377e-07
-4.511629583e-07
3.324707133e-08
-3.324724382e-08
)
;

boundaryField
{
    inlet
    {
        type            calculated;
        value           nonuniform 0();
    }
    outlet
    {
        type            calculated;
        value           nonuniform List<scalar> 9(2.427167992e-05 2.425144019e-05 2.285199086e-05 2.497119694e-05 2.496293332e-05 2.357455904e-05 2.427167926e-05 2.425143974e-05 2.285198908e-05);
    }
    walls
    {
        type            calculated;
        value           uniform 0;
    }
    procBoundary1to0
    {
        type            processor;
        value           nonuniform List<scalar> 9(-2.700142769e-05 -2.736585173e-05 -2.70014247e-05 -2.732519273e-05 -2.768938559e-05 -2.732519287e-05 -2.692361064e-05 -2.729095147e-05 -2.692361148e-05);
    }
}


// ************************************************************************* //
