/*--------------------------------*- C++ -*----------------------------------*\
  =========                 |
  \\      /  F ield         | OpenFOAM: The Open Source CFD Toolbox
   \\    /   O peration     | Website:  https://openfoam.org
    \\  /    A nd           | Version:  7
     \\/     M anipulation  |
\*---------------------------------------------------------------------------*/
FoamFile
{
    version     2.0;
    format      ascii;
    class       volScalarField::Internal;
    location    "0.08";
    object      steelCloud:hsTrans;
}
// * * * * * * * * * * * * * * * * * * * * * * * * * * * * * * * * * * * * * //

dimensions      [1 2 -2 0 0 0 0];

value           nonuniform List<scalar> 
27
(
0.0001510296267
0.0001511938036
0.0001510296267
0.0001511938036
0.0001513722989
0.0001511938036
0.0001510296267
0.0001511938036
0.0001510296267
0.0001195629474
0.0001196328856
0.0001195629474
0.0001196328856
0.0001197069311
0.0001196328856
0.0001195629474
0.0001196328856
0.0001195629474
0.0001019626435
0.0001019947315
0.0001019626435
0.0001019947315
0.0001020280215
0.0001019947315
0.0001019626435
0.0001019947315
0.0001019626435
)
;


// ************************************************************************* //
