/*--------------------------------*- C++ -*----------------------------------*\
  =========                 |
  \\      /  F ield         | OpenFOAM: The Open Source CFD Toolbox
   \\    /   O peration     | Website:  https://openfoam.org
    \\  /    A nd           | Version:  7
     \\/     M anipulation  |
\*---------------------------------------------------------------------------*/
FoamFile
{
    version     2.0;
    format      ascii;
    class       volScalarField::Internal;
    location    "0.08";
    object      steelCloud:UCoeff;
}
// * * * * * * * * * * * * * * * * * * * * * * * * * * * * * * * * * * * * * //

dimensions      [1 0 0 0 0 0 0];

value           nonuniform List<scalar> 
27
(
2.221167203e-08
2.223581725e-08
2.221167203e-08
2.223581725e-08
2.226206825e-08
2.223581725e-08
2.221167203e-08
2.223581725e-08
2.221167203e-08
1.758392066e-08
1.759420636e-08
1.758392066e-08
1.759420636e-08
1.76050961e-08
1.759420636e-08
1.758392066e-08
1.759420636e-08
1.758392066e-08
1.499547371e-08
1.500019284e-08
1.499547371e-08
1.500019284e-08
1.500508874e-08
1.500019284e-08
1.499547371e-08
1.500019284e-08
1.499547371e-08
)
;


// ************************************************************************* //
