/*--------------------------------*- C++ -*----------------------------------*\
  =========                 |
  \\      /  F ield         | OpenFOAM: The Open Source CFD Toolbox
   \\    /   O peration     | Website:  https://openfoam.org
    \\  /    A nd           | Version:  7
     \\/     M anipulation  |
\*---------------------------------------------------------------------------*/
FoamFile
{
    version     2.0;
    format      ascii;
    class       volScalarField;
    location    "0.08";
    object      T;
}
// * * * * * * * * * * * * * * * * * * * * * * * * * * * * * * * * * * * * * //

dimensions      [0 0 0 1 0 0 0];

internalField   nonuniform List<scalar> 
27
(
304.8058648
304.7830155
304.8058636
304.78417
304.763722
304.7841689
304.8082416
304.785067
304.8082404
305.8313127
305.7901725
305.8313106
305.7970058
305.7586248
305.7970037
305.8438536
305.8017633
305.8438515
306.6981892
306.6369164
306.6981872
306.6565179
306.598004
306.6565154
306.7331725
306.6694251
306.7331703
)
;

boundaryField
{
    inlet
    {
        type            fixedValue;
        value           nonuniform 0();
    }
    outlet
    {
        type            zeroGradient;
    }
    walls
    {
        type            zeroGradient;
    }
    procBoundary1to0
    {
        type            processor;
        value           nonuniform List<scalar> 9(303.5106868 303.5027604 303.5106867 303.5019366 303.4959346 303.5019367 303.5092588 303.5012362 303.5092589);
    }
}


// ************************************************************************* //
