/*--------------------------------*- C++ -*----------------------------------*\
  =========                 |
  \\      /  F ield         | OpenFOAM: The Open Source CFD Toolbox
   \\    /   O peration     | Website:  https://openfoam.org
    \\  /    A nd           | Version:  7
     \\/     M anipulation  |
\*---------------------------------------------------------------------------*/
FoamFile
{
    version     2.0;
    format      ascii;
    class       volScalarField;
    location    "0.08";
    object      Tavg;
}
// * * * * * * * * * * * * * * * * * * * * * * * * * * * * * * * * * * * * * //

dimensions      [0 0 0 1 0 0 0];

internalField   nonuniform List<scalar> 
27
(
304.0350186
304.035006
304.0350186
304.0351154
304.0351027
304.0351153
304.0352368
304.035224
304.0352367
304.4438094
304.4437907
304.4438093
304.4439527
304.443934
304.4439527
304.4441322
304.4441133
304.4441322
304.6767314
304.6767086
304.6767314
304.6769077
304.6768848
304.6769077
304.6771278
304.6771048
304.6771278
)
;

boundaryField
{
    inlet
    {
        type            fixedValue;
        value           nonuniform 0();
    }
    outlet
    {
        type            zeroGradient;
    }
    walls
    {
        type            zeroGradient;
    }
    procBoundary1to0
    {
        type            processor;
        value           nonuniform List<scalar> 9(303.5524899 303.552483 303.5524899 303.5525456 303.5525387 303.5525456 303.5526148 303.5526079 303.5526148);
    }
}


// ************************************************************************* //
