/*--------------------------------*- C++ -*----------------------------------*\
  =========                 |
  \\      /  F ield         | OpenFOAM: The Open Source CFD Toolbox
   \\    /   O peration     | Website:  https://openfoam.org
    \\  /    A nd           | Version:  7
     \\/     M anipulation  |
\*---------------------------------------------------------------------------*/
FoamFile
{
    version     2.0;
    format      ascii;
    class       volVectorField;
    location    "0.08";
    object      U;
}
// * * * * * * * * * * * * * * * * * * * * * * * * * * * * * * * * * * * * * //

dimensions      [0 1 -1 0 0 0 0];

internalField   nonuniform List<vector> 
27
(
(1.657826567 0.005067753524 -0.03190006579)
(1.684412206 6.517128196e-08 -0.03192481035)
(1.657826442 -0.005067611442 -0.03190012731)
(1.67981993 0.00505084757 0.01699944998)
(1.706428231 1.143403211e-08 0.01725544111)
(1.679819876 -0.005050759578 0.01699941027)
(1.649240907 0.004937670548 -0.04276558886)
(1.676079759 4.814141128e-08 -0.04289349323)
(1.649240911 -0.004937545642 -0.04276556311)
(1.550754702 0.005436009423 -0.04377489647)
(1.585444268 -1.487679824e-07 -0.04373931697)
(1.550754621 -0.005435932611 -0.04377474713)
(1.572896583 0.005379220747 0.01645040561)
(1.607771067 1.638813504e-08 0.01692052325)
(1.57289656 -0.005378980539 0.01645047568)
(1.527334713 0.005183697716 -0.05529489063)
(1.562560698 -5.055190881e-08 -0.05540737119)
(1.527334652 -0.005183521296 -0.05529496836)
(1.50540417 0.005101336873 -0.06016567541)
(1.548457737 -1.576496063e-07 -0.06002049843)
(1.505404118 -0.005101037299 -0.06016567571)
(1.511417972 0.00498181855 0.006279361474)
(1.555148063 -1.346381803e-07 0.007145271924)
(1.511417935 -0.004981495801 0.006279320728)
(1.433538078 0.004712810938 -0.07179166228)
(1.47791254 -1.672565596e-07 -0.07178516185)
(1.433537993 -0.004712509161 -0.07179171154)
)
;

boundaryField
{
    inlet
    {
        type            interstitialInletVelocity;
        inletVelocity   nonuniform 0();
        value           nonuniform 0();
    }
    outlet
    {
        type            pressureInletOutletVelocity;
        phi             alphaRhoPhi;
        value           nonuniform List<vector> 9((1.50540417 0.005101336873 -0.06016567541) (1.511417972 0.00498181855 0.006279361474) (1.433538078 0.004712810938 -0.07179166228) (1.548457737 -1.576496063e-07 -0.06002049843) (1.555148063 -1.346381803e-07 0.007145271924) (1.47791254 -1.672565596e-07 -0.07178516185) (1.505404118 -0.005101037299 -0.06016567571) (1.511417935 -0.004981495801 0.006279320728) (1.433537993 -0.004712509161 -0.07179171154));
    }
    walls
    {
        type            noSlip;
    }
    procBoundary1to0
    {
        type            processor;
        value           nonuniform List<vector> 9((1.779404917 0.00418402962 -0.02278606226) (1.797966411 4.558661508e-08 -0.02283133834) (1.779404919 -0.004183985193 -0.02278602866) (1.797194268 0.004174021672 0.01332835874) (1.815729993 8.845094726e-08 0.0134621036) (1.797194188 -0.004173934089 0.01332831374) (1.777795808 0.004115722865 -0.03173818979) (1.796473361 1.427024375e-08 -0.0318359364) (1.777795793 -0.004115709792 -0.03173826784));
    }
}


// ************************************************************************* //
