/*--------------------------------*- C++ -*----------------------------------*\
  =========                 |
  \\      /  F ield         | OpenFOAM: The Open Source CFD Toolbox
   \\    /   O peration     | Website:  https://openfoam.org
    \\  /    A nd           | Version:  7
     \\/     M anipulation  |
\*---------------------------------------------------------------------------*/
FoamFile
{
    version     2.0;
    format      ascii;
    class       volVectorField;
    location    "0.08";
    object      Uavg;
}
// * * * * * * * * * * * * * * * * * * * * * * * * * * * * * * * * * * * * * //

dimensions      [0 1 -1 0 0 0 0];

internalField   nonuniform List<vector> 
27
(
(1.159971499 7.170756171e-05 -0.01576931902)
(1.159980598 3.850200503e-08 -0.01576927591)
(1.159971498 -7.163039475e-05 -0.01576931885)
(1.159754618 7.154036651e-05 -0.0158319662)
(1.15976374 3.872930162e-08 -0.01583192241)
(1.159754618 -7.146274707e-05 -0.01583196612)
(1.159520041 7.136514607e-05 -0.01592828848)
(1.159529186 3.893273601e-08 -0.0159282537)
(1.15952004 -7.128712083e-05 -0.0159282885)
(1.157888454 8.547910868e-05 -0.01825908992)
(1.157902171 4.134597452e-08 -0.01825901032)
(1.157888453 -8.539612136e-05 -0.01825908973)
(1.157568125 8.522316529e-05 -0.01833016161)
(1.157581885 4.163449886e-08 -0.01833008002)
(1.157568125 -8.513960454e-05 -0.01833016155)
(1.157221229 8.49529727e-05 -0.01845043345)
(1.157235033 4.188438986e-08 -0.01845036828)
(1.157221228 -8.48689131e-05 -0.01845043352)
(1.163495755 9.431459976e-05 -0.01981164823)
(1.163512541 4.318789571e-08 -0.0198115398)
(1.163495754 -9.422783294e-05 -0.01981164805)
(1.163102304 9.399725829e-05 -0.01988838208)
(1.163119151 4.350194014e-08 -0.01988826988)
(1.163102303 -9.390986668e-05 -0.01988838206)
(1.162676396 9.366230063e-05 -0.02002404725)
(1.162693303 4.376996726e-08 -0.02002395622)
(1.162676395 -9.357437304e-05 -0.02002404738)
)
;

boundaryField
{
    inlet
    {
        type            interstitialInletVelocity;
        inletVelocity   nonuniform 0();
        value           nonuniform 0();
    }
    outlet
    {
        type            pressureInletOutletVelocity;
        phi             alphaRhoPhi;
        value           nonuniform List<vector> 9((1.505415607 0.005098873076 -0.06015964958) (1.511420664 0.004979520745 0.00627087582) (1.433548861 0.004710665588 -0.07178149443) (1.548459381 -3.405194605e-07 -0.0600152325) (1.555140508 -2.698721728e-07 0.007136468226) (1.477912236 -3.384570447e-07 -0.0717759441) (1.505415454 -0.005098369514 -0.06015962138) (1.511420706 -0.004978945789 0.00627083961) (1.433548711 -0.004710143282 -0.07178158632));
    }
    walls
    {
        type            noSlip;
    }
    procBoundary1to0
    {
        type            processor;
        value           nonuniform List<vector> 9((1.182750931 5.9954917e-05 -0.01320635017) (1.182756565 3.575910825e-08 -0.0132063353) (1.182750931 -5.988334419e-05 -0.01320635002) (1.182626972 5.986246731e-05 -0.01326098151) (1.182632615 3.592716419e-08 -0.01326096578) (1.182626972 -5.979055974e-05 -0.01326098144) (1.182491935 5.976815832e-05 -0.01333763038) (1.182497586 3.607526723e-08 -0.01333761758) (1.182491934 -5.969595471e-05 -0.01333763038));
    }
}


// ************************************************************************* //
