/*--------------------------------*- C++ -*----------------------------------*\
  =========                 |
  \\      /  F ield         | OpenFOAM: The Open Source CFD Toolbox
   \\    /   O peration     | Website:  https://openfoam.org
    \\  /    A nd           | Version:  7
     \\/     M anipulation  |
\*---------------------------------------------------------------------------*/
FoamFile
{
    version     2.0;
    format      ascii;
    class       volScalarField;
    location    "0.025";
    object      cpavg;
}
// * * * * * * * * * * * * * * * * * * * * * * * * * * * * * * * * * * * * * //

dimensions      [0 2 -2 -1 0 0 0];

internalField   nonuniform List<scalar> 
27
(
1011.935889
1011.935887
1011.935889
1011.935908
1011.935905
1011.935908
1011.935931
1011.935929
1011.935931
1012.002065
1012.002062
1012.002065
1012.00209
1012.002087
1012.00209
1012.002122
1012.002119
1012.002122
1012.040831
1012.040827
1012.040831
1012.040861
1012.040857
1012.040861
1012.040898
1012.040894
1012.040898
)
;

boundaryField
{
    inlet
    {
        type            calculated;
        value           nonuniform 0();
    }
    outlet
    {
        type            calculated;
        value           nonuniform List<scalar> 9(1012.451631 1012.444139 1012.45671 1012.441406 1012.434055 1012.446357 1012.451629 1012.444137 1012.456708);
    }
    walls
    {
        type            calculated;
        value           nonuniform List<scalar> 
36
(
1011.975855
1012.211828
1012.451631
1011.971751
1012.204759
1012.441406
1011.975852
1012.211828
1012.451629
1011.976887
1012.214195
1012.45671
1011.972758
1012.207065
1012.446357
1011.976885
1012.214193
1012.456708
1011.975852
1011.972271
1011.976885
1012.211828
1012.205966
1012.214193
1012.451629
1012.444137
1012.456708
1011.975855
1011.972275
1011.976887
1012.211828
1012.205968
1012.214195
1012.451631
1012.444139
1012.45671
)
;
    }
    procBoundary1to0
    {
        type            processor;
        value           nonuniform List<scalar> 9(1011.860705 1011.860703 1011.860705 1011.860717 1011.860716 1011.860717 1011.860732 1011.860731 1011.860732);
    }
}


// ************************************************************************* //
