/*--------------------------------*- C++ -*----------------------------------*\
  =========                 |
  \\      /  F ield         | OpenFOAM: The Open Source CFD Toolbox
   \\    /   O peration     | Website:  https://openfoam.org
    \\  /    A nd           | Version:  7
     \\/     M anipulation  |
\*---------------------------------------------------------------------------*/
FoamFile
{
    version     2.0;
    format      ascii;
    class       volScalarField;
    location    "0.025";
    object      p;
}
// * * * * * * * * * * * * * * * * * * * * * * * * * * * * * * * * * * * * * //

dimensions      [1 -1 -2 0 0 0 0];

internalField   nonuniform List<scalar> 
27
(
101325.8714
101325.8683
101325.8714
101325.8116
101325.8084
101325.8117
101325.7593
101325.7559
101325.7594
101325.5262
101325.5249
101325.5262
101325.4774
101325.476
101325.4774
101325.431
101325.4293
101325.431
101325.1943
101325.1953
101325.1944
101325.1647
101325.1655
101325.1647
101325.1324
101325.1329
101325.1324
)
;

boundaryField
{
    inlet
    {
        type            zeroGradient;
    }
    outlet
    {
        type            totalPressure;
        rho             rho;
        psi             none;
        gamma           1;
        p0              uniform 101325;
        value           uniform 101325;
    }
    walls
    {
        type            zeroGradient;
    }
    procBoundary1to0
    {
        type            processor;
        value           nonuniform List<scalar> 9(101326.4633 101326.4593 101326.4634 101326.3981 101326.3938 101326.3981 101326.3424 101326.3381 101326.3424);
    }
}


// ************************************************************************* //
