/*--------------------------------*- C++ -*----------------------------------*\
  =========                 |
  \\      /  F ield         | OpenFOAM: The Open Source CFD Toolbox
   \\    /   O peration     | Website:  https://openfoam.org
    \\  /    A nd           | Version:  7
     \\/     M anipulation  |
\*---------------------------------------------------------------------------*/
FoamFile
{
    version     2.0;
    format      ascii;
    class       volScalarField;
    location    "0.025";
    object      pDyn;
}
// * * * * * * * * * * * * * * * * * * * * * * * * * * * * * * * * * * * * * //

dimensions      [1 -1 -2 0 0 0 0];

internalField   nonuniform List<scalar> 
27
(
1.5688907
1.616993659
1.568979139
1.607854687
1.656738535
1.607867532
1.552550983
1.600558526
1.552480124
1.349467167
1.406540777
1.349604855
1.386583406
1.4442615
1.386515618
1.313587083
1.370038032
1.313643582
1.236244912
1.300570872
1.235894467
1.248198775
1.314269537
1.248494469
1.140014186
1.20309644
1.139969183
)
;

boundaryField
{
    inlet
    {
        type            calculated;
        value           nonuniform 0();
    }
    outlet
    {
        type            calculated;
        value           nonuniform List<scalar> 9(1.236242326 1.248196508 1.140012456 1.300568139 1.314267141 1.203094607 1.235891882 1.248492202 1.139967453);
    }
    walls
    {
        type            calculated;
        value           uniform 0;
    }
    procBoundary1to0
    {
        type            processor;
        value           nonuniform List<scalar> 9(1.831474235 1.867303649 1.830848541 1.864519921 1.901457426 1.864605866 1.825882298 1.862560729 1.825609925);
    }
}


// ************************************************************************* //
