/*--------------------------------*- C++ -*----------------------------------*\
  =========                 |
  \\      /  F ield         | OpenFOAM: The Open Source CFD Toolbox
   \\    /   O peration     | Website:  https://openfoam.org
    \\  /    A nd           | Version:  7
     \\/     M anipulation  |
\*---------------------------------------------------------------------------*/
FoamFile
{
    version     2.0;
    format      ascii;
    class       surfaceScalarField;
    location    "0.025";
    object      phi;
}
// * * * * * * * * * * * * * * * * * * * * * * * * * * * * * * * * * * * * * //

dimensions      [0 3 -1 0 0 0 0];

internalField   nonuniform List<scalar> 
54
(
5.223074419e-08
-3.349551456e-08
2.527741833e-05
-5.337277316e-08
-3.180102431e-08
2.575239962e-05
-3.26136423e-08
2.527533627e-05
5.389794148e-08
-1.343477673e-07
2.562289996e-05
-5.316120021e-08
-1.340792036e-07
2.610175147e-05
-1.342030364e-07
2.562354406e-05
5.358235888e-08
2.503065444e-05
-5.355577982e-08
2.551180786e-05
2.503020067e-05
4.64962179e-08
-1.264841816e-07
2.429120232e-05
-4.513915549e-08
-1.263693352e-07
2.487777464e-05
-1.274860816e-07
2.429153582e-05
4.61335051e-08
-2.128205389e-07
2.457905333e-05
-4.636932282e-08
-2.133540086e-07
2.517010405e-05
-2.132392099e-07
2.457885719e-05
4.63909984e-08
2.372126166e-05
-4.607188771e-08
2.431411831e-05
2.372072822e-05
2.856709689e-08
-3.513423245e-07
-2.909102748e-08
-3.475085663e-07
-3.506294516e-07
2.960481518e-08
-4.112458689e-07
-2.886582799e-08
-4.084887504e-07
-4.111185433e-07
2.926204156e-08
-2.896627694e-08
)
;

boundaryField
{
    inlet
    {
        type            calculated;
        value           nonuniform 0();
    }
    outlet
    {
        type            calculated;
        value           nonuniform List<scalar> 9(2.417523978e-05 2.416513969e-05 2.285105679e-05 2.483385544e-05 2.483485476e-05 2.352374294e-05 2.4174321e-05 2.41662717e-05 2.285095795e-05);
    }
    walls
    {
        type            calculated;
        value           uniform 0;
    }
    procBoundary1to0
    {
        type            processor;
        value           nonuniform List<scalar> 9(-2.699032903e-05 -2.734440711e-05 -2.699021204e-05 -2.729964713e-05 -2.765266562e-05 -2.729880865e-05 -2.690184544e-05 -2.725743227e-05 -2.690118375e-05);
    }
}


// ************************************************************************* //
