/*--------------------------------*- C++ -*----------------------------------*\
  =========                 |
  \\      /  F ield         | OpenFOAM: The Open Source CFD Toolbox
   \\    /   O peration     | Website:  https://openfoam.org
    \\  /    A nd           | Version:  7
     \\/     M anipulation  |
\*---------------------------------------------------------------------------*/
FoamFile
{
    version     2.0;
    format      ascii;
    class       volScalarField::Internal;
    location    "0.025";
    object      steelCloud:UCoeff;
}
// * * * * * * * * * * * * * * * * * * * * * * * * * * * * * * * * * * * * * //

dimensions      [1 0 0 0 0 0 0];

value           nonuniform List<scalar> 
27
(
2.236279461e-08
2.23871041e-08
2.23627946e-08
2.23871041e-08
2.241353371e-08
2.23871041e-08
2.23627946e-08
2.23871041e-08
2.236279461e-08
1.770355719e-08
1.771391287e-08
1.770355719e-08
1.771391287e-08
1.77248767e-08
1.771391287e-08
1.770355719e-08
1.771391287e-08
1.770355719e-08
1.509749911e-08
1.510225034e-08
1.509749911e-08
1.510225034e-08
1.510717955e-08
1.510225034e-08
1.509749911e-08
1.510225034e-08
1.509749911e-08
)
;


// ************************************************************************* //
