/*--------------------------------*- C++ -*----------------------------------*\
  =========                 |
  \\      /  F ield         | OpenFOAM: The Open Source CFD Toolbox
   \\    /   O peration     | Website:  https://openfoam.org
    \\  /    A nd           | Version:  7
     \\/     M anipulation  |
\*---------------------------------------------------------------------------*/
FoamFile
{
    version     2.0;
    format      ascii;
    class       volScalarField::Internal;
    location    "0.025";
    object      steelCloud:hsCoeff;
}
// * * * * * * * * * * * * * * * * * * * * * * * * * * * * * * * * * * * * * //

dimensions      [1 2 -2 -1 0 0 0];

value           nonuniform List<scalar> 
27
(
4.350364429e-06
4.355093497e-06
4.350364429e-06
4.355093497e-06
4.360235002e-06
4.355093497e-06
4.350364429e-06
4.355093497e-06
4.350364429e-06
3.443975891e-06
3.445990441e-06
3.443975891e-06
3.445990441e-06
3.4481233e-06
3.445990441e-06
3.443975891e-06
3.445990441e-06
3.443975891e-06
2.937004263e-06
2.937928548e-06
2.937004263e-06
2.937928548e-06
2.938887456e-06
2.937928548e-06
2.937004263e-06
2.937928548e-06
2.937004263e-06
)
;


// ************************************************************************* //
