/*--------------------------------*- C++ -*----------------------------------*\
  =========                 |
  \\      /  F ield         | OpenFOAM: The Open Source CFD Toolbox
   \\    /   O peration     | Website:  https://openfoam.org
    \\  /    A nd           | Version:  7
     \\/     M anipulation  |
\*---------------------------------------------------------------------------*/
FoamFile
{
    version     2.0;
    format      ascii;
    class       volScalarField;
    location    "0.025";
    object      T;
}
// * * * * * * * * * * * * * * * * * * * * * * * * * * * * * * * * * * * * * //

dimensions      [0 0 0 1 0 0 0];

internalField   nonuniform List<scalar> 
27
(
306.0633087
306.0092433
306.0633023
306.0155307
305.9638776
306.0155856
306.0757071
306.0212627
306.0757943
308.8388306
308.7353482
308.8391078
308.7546388
308.6538886
308.7545534
308.8763031
308.7711126
308.8763128
311.8467001
311.6842074
311.8466818
311.734028
311.5745864
311.7339877
311.9391377
311.773239
311.9392062
)
;

boundaryField
{
    inlet
    {
        type            fixedValue;
        value           nonuniform 0();
    }
    outlet
    {
        type            zeroGradient;
    }
    walls
    {
        type            zeroGradient;
    }
    procBoundary1to0
    {
        type            processor;
        value           nonuniform List<scalar> 9(303.616821 303.5968637 303.6169671 303.5979773 303.5795027 303.5979766 303.6192115 303.5989869 303.61928);
    }
}


// ************************************************************************* //
