/*--------------------------------*- C++ -*----------------------------------*\
  =========                 |
  \\      /  F ield         | OpenFOAM: The Open Source CFD Toolbox
   \\    /   O peration     | Website:  https://openfoam.org
    \\  /    A nd           | Version:  7
     \\/     M anipulation  |
\*---------------------------------------------------------------------------*/
FoamFile
{
    version     2.0;
    format      ascii;
    class       volVectorField;
    location    "0.025";
    object      Uavg;
}
// * * * * * * * * * * * * * * * * * * * * * * * * * * * * * * * * * * * * * //

dimensions      [0 1 -1 0 0 0 0];

internalField   nonuniform List<vector> 
27
(
(1.149470347 4.945769427e-05 -0.01338334366)
(1.149478662 -1.13645342e-05 -0.01338331273)
(1.149470352 -7.218136323e-05 -0.01338328324)
(1.149285187 4.940712325e-05 -0.01343449961)
(1.14929351 -1.13431067e-05 -0.01343448159)
(1.149285194 -7.208908815e-05 -0.01343446203)
(1.149083642 4.933396404e-05 -0.01351318211)
(1.149091975 -1.133176086e-05 -0.01351318817)
(1.149083656 -7.199292539e-05 -0.0135131682)
(1.148570151 5.99143791e-05 -0.01531783465)
(1.148582612 -1.025559007e-05 -0.01531769839)
(1.148570256 -8.042327139e-05 -0.0153175651)
(1.148299079 5.992784253e-05 -0.01537336196)
(1.14831157 -1.014240865e-05 -0.01537325025)
(1.148299211 -8.021111626e-05 -0.01537314266)
(1.148003607 5.991083804e-05 -0.01546799454)
(1.148016124 -1.00432732e-05 -0.01546792653)
(1.148003758 -7.999623411e-05 -0.01546782651)
(1.154724861 6.650814748e-05 -0.01653149541)
(1.154739982 -9.704571971e-06 -0.0165312495)
(1.154724957 -8.591209652e-05 -0.01653102064)
(1.154393409 6.660204335e-05 -0.0165901236)
(1.154408595 -9.499075391e-06 -0.01658991601)
(1.154393574 -8.559937789e-05 -0.0165897338)
(1.154032358 6.66518342e-05 -0.01669494594)
(1.154047587 -9.322936689e-06 -0.0166948053)
(1.15403256 -8.529896417e-05 -0.01669464736)
)
;

boundaryField
{
    inlet
    {
        type            interstitialInletVelocity;
        inletVelocity   nonuniform 0();
        value           nonuniform 0();
    }
    outlet
    {
        type            pressureInletOutletVelocity;
        phi             alphaRhoPhi;
        value           nonuniform List<vector> 9((1.489982705 0.003647107429 -0.04850089344) (1.497697151 0.003810638691 0.00234183958) (1.43062745 0.003718333851 -0.05655596641) (1.527933857 -0.0001667255192 -0.04849330595) (1.536464815 8.700240058e-05 0.003096917507) (1.469374562 7.770829907e-06 -0.05681493461) (1.489778812 -0.003816424985 -0.04825370862) (1.497874388 -0.003730444283 0.002515919709) (1.430596199 -0.003716426568 -0.05663005274));
    }
    walls
    {
        type            noSlip;
    }
    procBoundary1to0
    {
        type            processor;
        value           nonuniform List<vector> 9((1.170498828 4.072958559e-05 -0.01141102947) (1.170503946 -1.270892537e-05 -0.01141113966) (1.170498627 -6.614392762e-05 -0.01141121736) (1.170391268 4.057193181e-05 -0.0114583644) (1.170396397 -1.279444078e-05 -0.01145845496) (1.170391083 -6.615431914e-05 -0.01145851723) (1.170273365 4.043063506e-05 -0.01152488699) (1.170278506 -1.286393433e-05 -0.01152495894) (1.170273193 -6.615114104e-05 -0.01152500084));
    }
}


// ************************************************************************* //
