/*--------------------------------*- C++ -*----------------------------------*\
  =========                 |
  \\      /  F ield         | OpenFOAM: The Open Source CFD Toolbox
   \\    /   O peration     | Website:  https://openfoam.org
    \\  /    A nd           | Version:  7
     \\/     M anipulation  |
\*---------------------------------------------------------------------------*/
FoamFile
{
    version     2.0;
    format      ascii;
    class       surfaceScalarField;
    location    "0.025";
    object      alphaRhoPhi;
}
// * * * * * * * * * * * * * * * * * * * * * * * * * * * * * * * * * * * * * //

dimensions      [1 0 -1 0 0 0 0];

internalField   nonuniform List<scalar> 
54
(
2.594934904e-08
3.462594134e-08
2.315082472e-05
-2.559111867e-08
3.386615825e-08
2.322911223e-05
3.451405459e-08
2.315129584e-05
2.526377471e-08
-1.713619659e-08
2.323791606e-05
-2.511843917e-08
-1.668728323e-08
2.331238794e-05
-1.709791318e-08
2.323790809e-05
2.595803093e-08
2.316827345e-05
-2.569101368e-08
2.324636108e-05
2.316857838e-05
2.952986411e-08
1.713202328e-08
2.30854625e-05
-3.072202374e-08
1.754676633e-08
2.3253285e-05
1.743565542e-08
2.308442654e-05
3.012722065e-08
-4.362981677e-08
2.324999155e-05
-3.040354782e-08
-4.346222171e-08
2.34155523e-05
-4.368588808e-08
2.325006382e-05
3.010699632e-08
2.307578563e-05
-3.100296094e-08
2.324542968e-05
2.307513795e-05
4.146223565e-08
7.618422306e-09
-4.084339776e-08
7.071014436e-09
7.309161487e-09
4.122945359e-08
-7.380494572e-08
-4.1715014e-08
-7.415571157e-08
-7.381170176e-08
4.141974678e-08
-4.134009027e-08
)
;

boundaryField
{
    inlet
    {
        type            calculated;
        value           nonuniform List<scalar> 9(-2.32111832e-05 -2.321116793e-05 -2.321115584e-05 -2.321118171e-05 -2.321116647e-05 -2.321115434e-05 -2.321118321e-05 -2.321116794e-05 -2.321115585e-05);
    }
    outlet
    {
        type            calculated;
        value           nonuniform 0();
    }
    walls
    {
        type            calculated;
        value           uniform 0;
    }
    procBoundary0to1
    {
        type            processor;
        value           nonuniform List<scalar> 9(2.298382147e-05 2.327632004e-05 2.298371653e-05 2.323792499e-05 2.352782038e-05 2.32372092e-05 2.290789351e-05 2.320172253e-05 2.290732422e-05);
    }
}


// ************************************************************************* //
