/*--------------------------------*- C++ -*----------------------------------*\
  =========                 |
  \\      /  F ield         | OpenFOAM: The Open Source CFD Toolbox
   \\    /   O peration     | Website:  https://openfoam.org
    \\  /    A nd           | Version:  7
     \\/     M anipulation  |
\*---------------------------------------------------------------------------*/
FoamFile
{
    version     2.0;
    format      ascii;
    class       volScalarField;
    location    "0.025";
    object      cpavg;
}
// * * * * * * * * * * * * * * * * * * * * * * * * * * * * * * * * * * * * * //

dimensions      [0 2 -2 -1 0 0 0];

internalField   nonuniform List<scalar> 
27
(
1011.75956
1011.75956
1011.75956
1011.759566
1011.759565
1011.759566
1011.759572
1011.759572
1011.759572
1011.796415
1011.796414
1011.796415
1011.796423
1011.796422
1011.796423
1011.796432
1011.796432
1011.796432
1011.860705
1011.860703
1011.860705
1011.860717
1011.860716
1011.860717
1011.860732
1011.860731
1011.860732
)
;

boundaryField
{
    inlet
    {
        type            calculated;
        value           uniform 1011.338357;
    }
    outlet
    {
        type            calculated;
        value           nonuniform 0();
    }
    walls
    {
        type            calculated;
        value           nonuniform List<scalar> 
36
(
1011.433509
1011.574889
1011.759021
1011.433597
1011.574456
1011.757218
1011.433509
1011.574889
1011.759022
1011.433509
1011.574922
1011.759346
1011.433598
1011.574489
1011.757532
1011.433509
1011.574923
1011.759343
1011.433509
1011.433597
1011.433509
1011.574889
1011.574476
1011.574923
1011.759022
1011.757382
1011.759343
1011.433509
1011.433597
1011.433509
1011.574889
1011.574475
1011.574922
1011.759021
1011.757384
1011.759346
)
;
    }
    procBoundary0to1
    {
        type            processor;
        value           nonuniform List<scalar> 9(1011.935889 1011.935887 1011.935889 1011.935908 1011.935905 1011.935908 1011.935931 1011.935929 1011.935931);
    }
}


// ************************************************************************* //
