/*--------------------------------*- C++ -*----------------------------------*\
  =========                 |
  \\      /  F ield         | OpenFOAM: The Open Source CFD Toolbox
   \\    /   O peration     | Website:  https://openfoam.org
    \\  /    A nd           | Version:  7
     \\/     M anipulation  |
\*---------------------------------------------------------------------------*/
FoamFile
{
    version     2.0;
    format      ascii;
    class       volScalarField;
    location    "0.025";
    object      pDyn;
}
// * * * * * * * * * * * * * * * * * * * * * * * * * * * * * * * * * * * * * //

dimensions      [1 -1 -2 0 0 0 0];

internalField   nonuniform List<scalar> 
27
(
1.63780053
1.651110449
1.637846862
1.651561852
1.665171932
1.651618607
1.638806861
1.652148308
1.638864527
1.864167107
1.888204848
1.864273816
1.88840722
1.91198224
1.888155443
1.864924931
1.888670761
1.864891501
1.831474235
1.867303649
1.830848541
1.864519921
1.901457426
1.864605866
1.825882298
1.862560729
1.825609925
)
;

boundaryField
{
    inlet
    {
        type            calculated;
        value           nonuniform List<scalar> 9(2.217818691 2.222730003 2.217816137 2.222731292 2.228231863 2.222728733 2.217818684 2.222729998 2.217816131);
    }
    outlet
    {
        type            calculated;
        value           nonuniform 0();
    }
    walls
    {
        type            calculated;
        value           uniform 0;
    }
    procBoundary0to1
    {
        type            processor;
        value           nonuniform List<scalar> 9(1.5688907 1.616993659 1.568979139 1.607854687 1.656738535 1.607867532 1.552550983 1.600558526 1.552480124);
    }
}


// ************************************************************************* //
