/*--------------------------------*- C++ -*----------------------------------*\
  =========                 |
  \\      /  F ield         | OpenFOAM: The Open Source CFD Toolbox
   \\    /   O peration     | Website:  https://openfoam.org
    \\  /    A nd           | Version:  7
     \\/     M anipulation  |
\*---------------------------------------------------------------------------*/
FoamFile
{
    version     2.0;
    format      ascii;
    class       surfaceScalarField;
    location    "0.025";
    object      phi;
}
// * * * * * * * * * * * * * * * * * * * * * * * * * * * * * * * * * * * * * //

dimensions      [0 3 -1 0 0 0 0];

internalField   nonuniform List<scalar> 
54
(
3.490259018e-08
4.657285984e-08
3.05809777e-05
-3.442076044e-08
4.560473695e-08
3.071825985e-05
4.642236898e-08
3.058159691e-05
3.402063294e-08
-2.304867729e-08
3.072990799e-05
-3.382492158e-08
-2.247138873e-08
3.086714585e-05
-2.299718497e-08
3.072989832e-05
3.491430833e-08
3.06040349e-05
-3.455516233e-08
3.074108153e-05
3.060443595e-05
3.836747063e-08
2.225924002e-08
2.9002249e-05
-3.991641208e-08
2.28249907e-08
2.92381155e-05
2.265374056e-08
2.900095154e-05
3.918975428e-08
-5.668719008e-08
2.923403364e-05
-3.954920423e-08
-5.653603546e-08
2.947131243e-05
-5.67600406e-08
2.923412533e-05
3.911730498e-08
2.899021388e-05
-4.028140823e-08
2.922835173e-05
2.898940179e-05
5.047520659e-08
9.274518255e-09
-4.972185901e-08
8.613984666e-09
8.898032316e-09
5.022626428e-08
-8.984910429e-08
-5.081778033e-08
-9.033764315e-08
-8.985733901e-08
5.042391678e-08
-5.032694953e-08
)
;

boundaryField
{
    inlet
    {
        type            calculated;
        value           nonuniform List<scalar> 9(-3.102855299e-05 -3.106290004e-05 -3.102855299e-05 -3.106290004e-05 -3.11013218e-05 -3.106290004e-05 -3.102855299e-05 -3.106290004e-05 -3.102855299e-05);
    }
    outlet
    {
        type            calculated;
        value           nonuniform 0();
    }
    walls
    {
        type            calculated;
        value           uniform 0;
    }
    procBoundary0to1
    {
        type            processor;
        value           nonuniform List<scalar> 9(2.699032903e-05 2.734440711e-05 2.699021204e-05 2.729964713e-05 2.765266562e-05 2.729880865e-05 2.690184544e-05 2.725743227e-05 2.690118375e-05);
    }
}


// ************************************************************************* //
