/*--------------------------------*- C++ -*----------------------------------*\
  =========                 |
  \\      /  F ield         | OpenFOAM: The Open Source CFD Toolbox
   \\    /   O peration     | Website:  https://openfoam.org
    \\  /    A nd           | Version:  7
     \\/     M anipulation  |
\*---------------------------------------------------------------------------*/
FoamFile
{
    version     2.0;
    format      ascii;
    class       surfaceScalarField;
    location    "0.025";
    object      rhoPhi;
}
// * * * * * * * * * * * * * * * * * * * * * * * * * * * * * * * * * * * * * //

dimensions      [1 0 -1 0 0 0 0];

internalField   nonuniform List<scalar> 
54
(
4.093577982e-08
5.462333213e-08
3.575771549e-05
-4.037066202e-08
5.348736204e-08
3.591823286e-05
5.444682784e-08
3.575844315e-05
3.990097296e-08
-2.703280032e-08
3.593184586e-05
-3.967143364e-08
-2.635547714e-08
3.609222763e-05
-2.697240722e-08
3.593183354e-05
4.094947574e-08
3.578466601e-05
-4.052824901e-08
3.594490406e-05
3.578513699e-05
4.472500958e-08
2.594762721e-08
3.369011045e-05
-4.653061731e-08
2.660730606e-08
3.396536137e-05
2.640749896e-08
3.368859861e-05
4.568386935e-08
-6.608035736e-08
3.396055074e-05
-4.610288226e-08
-6.590460108e-08
3.423731655e-05
-6.616528121e-08
3.39606563e-05
4.5599116e-08
3.367598837e-05
-4.695611602e-08
3.395388736e-05
3.367504316e-05
5.843098328e-08
1.073632185e-08
-5.75588811e-08
9.972308981e-09
1.030049359e-08
5.814623262e-08
-1.040102031e-07
-5.883102241e-08
-1.045824012e-07
-1.040197241e-07
5.837110551e-08
-5.825884895e-08
)
;

boundaryField
{
    inlet
    {
        type            calculated;
        value           nonuniform List<scalar> 9(-3.659600751e-05 -3.663649335e-05 -3.659596438e-05 -3.663651511e-05 -3.668180679e-05 -3.66364719e-05 -3.659600753e-05 -3.663649337e-05 -3.659596439e-05);
    }
    outlet
    {
        type            calculated;
        value           nonuniform 0();
    }
    walls
    {
        type            calculated;
        value           uniform 0;
    }
    procBoundary0to1
    {
        type            processor;
        value           nonuniform List<scalar> 9(3.111849039e-05 3.153053772e-05 3.111834832e-05 3.147852706e-05 3.188923733e-05 3.147755745e-05 3.101568923e-05 3.142948653e-05 3.101491846e-05);
    }
}


// ************************************************************************* //
