/*--------------------------------*- C++ -*----------------------------------*\
  =========                 |
  \\      /  F ield         | OpenFOAM: The Open Source CFD Toolbox
   \\    /   O peration     | Website:  https://openfoam.org
    \\  /    A nd           | Version:  7
     \\/     M anipulation  |
\*---------------------------------------------------------------------------*/
FoamFile
{
    version     2.0;
    format      ascii;
    class       volVectorField::Internal;
    location    "0.025";
    object      steelCloud:UTrans;
}
// * * * * * * * * * * * * * * * * * * * * * * * * * * * * * * * * * * * * * //

dimensions      [1 1 -1 0 0 0 0];

value           nonuniform List<vector> 
27
(
(-6.369647867e-08 2.183143305e-12 -2.686227443e-10)
(-6.381861572e-08 2.187329449e-12 -2.691378244e-10)
(-6.369647867e-08 2.183143305e-12 -2.686227443e-10)
(-6.381861572e-08 2.187329449e-12 -2.691378244e-10)
(-6.395492265e-08 2.192001255e-12 -2.697126621e-10)
(-6.381861572e-08 2.187329449e-12 -2.691378244e-10)
(-6.369647867e-08 2.183143305e-12 -2.686227443e-10)
(-6.381861572e-08 2.187329449e-12 -2.691378244e-10)
(-6.369647867e-08 2.183143305e-12 -2.686227443e-10)
(-5.910530587e-08 2.025784713e-12 -2.492607094e-10)
(-5.923178058e-08 2.030119528e-12 -2.497940825e-10)
(-5.910530587e-08 2.025784713e-12 -2.492607094e-10)
(-5.923178058e-08 2.030119528e-12 -2.497940825e-10)
(-5.9377758e-08 2.035122781e-12 -2.504097029e-10)
(-5.923178058e-08 2.030119528e-12 -2.497940825e-10)
(-5.910530587e-08 2.025784713e-12 -2.492607094e-10)
(-5.923178058e-08 2.030119528e-12 -2.497940825e-10)
(-5.910530587e-08 2.025784713e-12 -2.492607094e-10)
(-5.053248426e-08 1.731958453e-12 -2.131071431e-10)
(-5.061918368e-08 1.734930003e-12 -2.134727746e-10)
(-5.053248426e-08 1.731958453e-12 -2.131071431e-10)
(-5.061918368e-08 1.734930003e-12 -2.134727746e-10)
(-5.071653403e-08 1.738266605e-12 -2.138833235e-10)
(-5.061918368e-08 1.734930003e-12 -2.134727746e-10)
(-5.053248426e-08 1.731958453e-12 -2.131071431e-10)
(-5.061918368e-08 1.734930003e-12 -2.134727746e-10)
(-5.053248427e-08 1.731958454e-12 -2.131071431e-10)
)
;


// ************************************************************************* //
