/*--------------------------------*- C++ -*----------------------------------*\
  =========                 |
  \\      /  F ield         | OpenFOAM: The Open Source CFD Toolbox
   \\    /   O peration     | Website:  https://openfoam.org
    \\  /    A nd           | Version:  7
     \\/     M anipulation  |
\*---------------------------------------------------------------------------*/
FoamFile
{
    version     2.0;
    format      ascii;
    class       volScalarField::Internal;
    location    "0.025";
    object      steelCloud:hsCoeff;
}
// * * * * * * * * * * * * * * * * * * * * * * * * * * * * * * * * * * * * * //

dimensions      [1 2 -2 -1 0 0 0];

value           nonuniform List<scalar> 
27
(
6.838810693e-06
6.851924011e-06
6.838810693e-06
6.851924011e-06
6.866558686e-06
6.851924011e-06
6.838810693e-06
6.851924011e-06
6.838810693e-06
6.345876668e-06
6.359455701e-06
6.345876668e-06
6.359455701e-06
6.375128654e-06
6.359455701e-06
6.345876668e-06
6.359455701e-06
6.345876668e-06
5.425450527e-06
5.434759062e-06
5.425450527e-06
5.434759062e-06
5.445211141e-06
5.434759062e-06
5.425450527e-06
5.434759062e-06
5.425450527e-06
)
;


// ************************************************************************* //
