/*--------------------------------*- C++ -*----------------------------------*\
  =========                 |
  \\      /  F ield         | OpenFOAM: The Open Source CFD Toolbox
   \\    /   O peration     | Website:  https://openfoam.org
    \\  /    A nd           | Version:  7
     \\/     M anipulation  |
\*---------------------------------------------------------------------------*/
FoamFile
{
    version     2.0;
    format      ascii;
    class       volVectorField;
    location    "0.025";
    object      U;
}
// * * * * * * * * * * * * * * * * * * * * * * * * * * * * * * * * * * * * * //

dimensions      [0 1 -1 0 0 0 0];

internalField   nonuniform List<vector> 
27
(
(1.699621427 0.001650191326 -0.007675107077)
(1.706523899 1.665860045e-05 -0.00773880441)
(1.699635863 -0.001625638818 -0.007684225525)
(1.706861166 0.001608691589 0.003336573496)
(1.713906531 7.214312875e-06 0.003348667221)
(1.706876468 -0.001593421074 0.003332683867)
(1.700284777 0.001632863343 -0.01112530028)
(1.707200877 1.257376569e-05 -0.01112421087)
(1.700300783 -0.001612350389 -0.01112022369)
(1.796891408 0.002902971378 -0.01502000699)
(1.808505859 -6.226273675e-05 -0.01500971846)
(1.796918272 -0.002953603189 -0.01497462196)
(1.808873648 0.002955174366 0.007750604564)
(1.82038981 -1.670043808e-05 0.007863234189)
(1.808846891 -0.002960591029 0.007764709909)
(1.797558775 0.002924148787 -0.02123641461)
(1.809153255 -4.770969025e-05 -0.0213111042)
(1.797559871 -0.002960384119 -0.02126699954)
(1.781007291 0.004199825276 -0.02197973651)
(1.79891366 2.569017168e-05 -0.02214044143)
(1.780894755 -0.0041627194 -0.02203672037)
(1.797835957 0.004106955979 0.01238778556)
(1.815821572 -3.04846699e-05 0.01244579095)
(1.797830661 -0.004125822718 0.01236104517)
(1.778639755 0.004072721314 -0.03086612437)
(1.796746853 -6.30758401e-07 -0.0309696631)
(1.778582656 -0.004061850536 -0.03083619463)
)
;

boundaryField
{
    inlet
    {
        type            interstitialInletVelocity;
        inletVelocity   uniform (1.23 0 0);
        value           nonuniform List<vector> 9((1.939284562 0 0) (1.941431252 0 0) (1.939284562 0 0) (1.941431252 0 0) (1.943832612 0 0) (1.941431252 0 0) (1.939284562 0 0) (1.941431252 0 0) (1.939284562 0 0));
    }
    outlet
    {
        type            pressureInletOutletVelocity;
        phi             alphaRhoPhi;
        value           nonuniform 0();
    }
    walls
    {
        type            noSlip;
    }
    procBoundary0to1
    {
        type            processor;
        value           nonuniform List<vector> 9((1.660482669 0.00474398193 -0.02997256977) (1.686221472 -5.201245568e-05 -0.02998740125) (1.660438235 -0.004785152161 -0.02989745116) (1.681424442 0.004825274242 0.01517490419) (1.707253137 2.60392286e-05 0.01547357965) (1.681416857 -0.004788295533 0.0152259017) (1.651192123 0.004721068622 -0.04016474744) (1.677134572 -3.049659534e-06 -0.04036594352) (1.651140417 -0.004713305213 -0.04019323215));
    }
}


// ************************************************************************* //
