/*--------------------------------*- C++ -*----------------------------------*\
  =========                 |
  \\      /  F ield         | OpenFOAM: The Open Source CFD Toolbox
   \\    /   O peration     | Website:  https://openfoam.org
    \\  /    A nd           | Version:  7
     \\/     M anipulation  |
\*---------------------------------------------------------------------------*/
FoamFile
{
    version     2.0;
    format      ascii;
    class       volVectorField;
    location    "0.025";
    object      Uavg;
}
// * * * * * * * * * * * * * * * * * * * * * * * * * * * * * * * * * * * * * //

dimensions      [0 1 -1 0 0 0 0];

internalField   nonuniform List<vector> 
27
(
(1.232011734 3.397200946e-05 -0.009138821783)
(1.23201555 -1.468806573e-05 -0.009138963419)
(1.232011468 -6.334062777e-05 -0.009139082348)
(1.231980522 3.381215761e-05 -0.009182523147)
(1.231984342 -1.480829474e-05 -0.009182648697)
(1.231980263 -6.342026886e-05 -0.009182757316)
(1.231941415 3.366162472e-05 -0.009242344915)
(1.23194524 -1.492223674e-05 -0.009242456232)
(1.231941167 -6.349682541e-05 -0.009242550903)
(1.205558186 3.599032759e-05 -0.009919269748)
(1.205562267 -1.399785107e-05 -0.009919413898)
(1.205557905 -6.397722018e-05 -0.00991953085)
(1.205502602 3.581914802e-05 -0.009963982141)
(1.205506689 -1.411641913e-05 -0.009964105924)
(1.205502331 -6.404143778e-05 -0.009964207352)
(1.205438598 3.566101371e-05 -0.01002566122)
(1.205442694 -1.422366095e-05 -0.01002576609)
(1.205438341 -6.409669981e-05 -0.01002584766)
(1.170498828 4.072958559e-05 -0.01141102947)
(1.170503946 -1.270892537e-05 -0.01141113966)
(1.170498627 -6.614392762e-05 -0.01141121736)
(1.170391268 4.057193181e-05 -0.0114583644)
(1.170396397 -1.279444078e-05 -0.01145845496)
(1.170391083 -6.615431914e-05 -0.01145851723)
(1.170273365 4.043063506e-05 -0.01152488699)
(1.170278506 -1.286393433e-05 -0.01152495894)
(1.170273193 -6.615114104e-05 -0.01152500084)
)
;

boundaryField
{
    inlet
    {
        type            interstitialInletVelocity;
        inletVelocity   uniform (1.23 0 0);
        value           uniform (1.23 0 0);
    }
    outlet
    {
        type            pressureInletOutletVelocity;
        phi             alphaRhoPhi;
        value           nonuniform 0();
    }
    walls
    {
        type            noSlip;
    }
    procBoundary0to1
    {
        type            processor;
        value           nonuniform List<vector> 9((1.149470347 4.945769427e-05 -0.01338334366) (1.149478662 -1.13645342e-05 -0.01338331273) (1.149470352 -7.218136323e-05 -0.01338328324) (1.149285187 4.940712325e-05 -0.01343449961) (1.14929351 -1.13431067e-05 -0.01343448159) (1.149285194 -7.208908815e-05 -0.01343446203) (1.149083642 4.933396404e-05 -0.01351318211) (1.149091975 -1.133176086e-05 -0.01351318817) (1.149083656 -7.199292539e-05 -0.0135131682));
    }
}


// ************************************************************************* //
