/*--------------------------------*- C++ -*----------------------------------*\
  =========                 |
  \\      /  F ield         | OpenFOAM: The Open Source CFD Toolbox
   \\    /   O peration     | Website:  https://openfoam.org
    \\  /    A nd           | Version:  7
     \\/     M anipulation  |
\*---------------------------------------------------------------------------*/
FoamFile
{
    version     2.0;
    format      ascii;
    class       surfaceScalarField;
    location    "0.055";
    object      alphaRhoPhi;
}
// * * * * * * * * * * * * * * * * * * * * * * * * * * * * * * * * * * * * * //

dimensions      [1 0 -1 0 0 0 0];

internalField   nonuniform List<scalar> 
54
(
2.652458138e-08
3.664149413e-08
2.314810178e-05
-2.652182797e-08
3.610610627e-08
2.322821013e-05
3.664167719e-08
2.314810382e-05
2.610674657e-08
-1.670753962e-08
2.323849797e-05
-2.610416805e-08
-1.628961218e-08
2.331585644e-05
-1.670770525e-08
2.3238499e-05
2.669371927e-08
2.316783857e-05
-2.669089915e-08
2.324833521e-05
2.316783984e-05
3.107384348e-08
2.056806704e-08
2.309683485e-05
-3.106988894e-08
2.036904428e-08
2.327035646e-05
2.056837357e-08
2.309684024e-05
3.100327038e-08
-4.205932868e-08
2.327049295e-05
-3.099889093e-08
-4.193040939e-08
2.34405293e-05
-4.205967444e-08
2.32704948e-05
3.131179718e-08
2.309484148e-05
-3.13075704e-08
2.326939053e-05
2.309484509e-05
4.219354111e-08
9.20674579e-09
-4.219413176e-08
9.548671801e-09
9.206942354e-09
4.248962385e-08
-7.334113941e-08
-4.2486887e-08
-7.327560964e-08
-7.33421819e-08
4.254873441e-08
-4.254978819e-08
)
;

boundaryField
{
    inlet
    {
        type            calculated;
        value           nonuniform List<scalar> 9(-2.3211167e-05 -2.321115162e-05 -2.321113955e-05 -2.321116546e-05 -2.321115009e-05 -2.321113798e-05 -2.3211167e-05 -2.321115162e-05 -2.321113955e-05);
    }
    outlet
    {
        type            calculated;
        value           nonuniform 0();
    }
    walls
    {
        type            calculated;
        value           uniform 0;
    }
    procBoundary0to1
    {
        type            processor;
        value           nonuniform List<scalar> 9(2.304625269e-05 2.334601073e-05 2.304625215e-05 2.331136516e-05 2.360912988e-05 2.331137085e-05 2.297976216e-05 2.328202597e-05 2.297976566e-05);
    }
}


// ************************************************************************* //
