/*--------------------------------*- C++ -*----------------------------------*\
  =========                 |
  \\      /  F ield         | OpenFOAM: The Open Source CFD Toolbox
   \\    /   O peration     | Website:  https://openfoam.org
    \\  /    A nd           | Version:  7
     \\/     M anipulation  |
\*---------------------------------------------------------------------------*/
FoamFile
{
    version     2.0;
    format      ascii;
    class       volScalarField;
    location    "0.055";
    object      cpavg;
}
// * * * * * * * * * * * * * * * * * * * * * * * * * * * * * * * * * * * * * //

dimensions      [0 2 -2 -1 0 0 0];

internalField   nonuniform List<scalar> 
27
(
1011.621877
1011.621877
1011.621877
1011.621878
1011.621878
1011.621878
1011.62188
1011.621879
1011.62188
1011.63697
1011.63697
1011.63697
1011.636972
1011.636972
1011.636972
1011.636975
1011.636974
1011.636975
1011.662569
1011.662569
1011.662569
1011.662574
1011.662573
1011.662574
1011.662579
1011.662578
1011.662579
)
;

boundaryField
{
    inlet
    {
        type            calculated;
        value           uniform 1011.338357;
    }
    outlet
    {
        type            calculated;
        value           nonuniform 0();
    }
    walls
    {
        type            calculated;
        value           nonuniform List<scalar> 
36
(
1011.453937
1011.563396
1011.658121
1011.454157
1011.563477
1011.657663
1011.453937
1011.563396
1011.65812
1011.453936
1011.563304
1011.65804
1011.454157
1011.563383
1011.657578
1011.453936
1011.563304
1011.65804
1011.453937
1011.454157
1011.453936
1011.563396
1011.563429
1011.563304
1011.65812
1011.657616
1011.65804
1011.453937
1011.454157
1011.453936
1011.563396
1011.563429
1011.563304
1011.658121
1011.657616
1011.65804
)
;
    }
    procBoundary0to1
    {
        type            processor;
        value           nonuniform List<scalar> 9(1011.691433 1011.691432 1011.691433 1011.69144 1011.691439 1011.69144 1011.691449 1011.691448 1011.691449);
    }
}


// ************************************************************************* //
