/*--------------------------------*- C++ -*----------------------------------*\
  =========                 |
  \\      /  F ield         | OpenFOAM: The Open Source CFD Toolbox
   \\    /   O peration     | Website:  https://openfoam.org
    \\  /    A nd           | Version:  7
     \\/     M anipulation  |
\*---------------------------------------------------------------------------*/
FoamFile
{
    version     2.0;
    format      ascii;
    class       volScalarField;
    location    "0.055";
    object      muavg;
}
// * * * * * * * * * * * * * * * * * * * * * * * * * * * * * * * * * * * * * //

dimensions      [1 -1 -1 0 0 0 0];

internalField   nonuniform List<scalar> 
27
(
1.861054031e-05
1.861054027e-05
1.861054031e-05
1.861054144e-05
1.861054141e-05
1.861054144e-05
1.861054265e-05
1.861054261e-05
1.861054265e-05
1.862385529e-05
1.862385514e-05
1.862385529e-05
1.862385719e-05
1.862385704e-05
1.862385719e-05
1.862385937e-05
1.862385922e-05
1.862385937e-05
1.864640771e-05
1.864640734e-05
1.864640771e-05
1.864641127e-05
1.86464109e-05
1.864641127e-05
1.864641557e-05
1.864641519e-05
1.864641557e-05
)
;

boundaryField
{
    inlet
    {
        type            calculated;
        value           uniform 1.835366622e-05;
    }
    outlet
    {
        type            calculated;
        value           nonuniform 0();
    }
    walls
    {
        type            calculated;
        value           nonuniform List<scalar> 
36
(
1.846078626e-05
1.855993547e-05
1.864403204e-05
1.846098824e-05
1.856000794e-05
1.864362962e-05
1.846078626e-05
1.855993533e-05
1.864403187e-05
1.846078606e-05
1.855985242e-05
1.864396146e-05
1.846098802e-05
1.855992379e-05
1.86435543e-05
1.846078606e-05
1.855985233e-05
1.864396132e-05
1.846078626e-05
1.846098812e-05
1.846078606e-05
1.855993533e-05
1.855996468e-05
1.855985233e-05
1.864403187e-05
1.864358812e-05
1.864396132e-05
1.846078626e-05
1.846098812e-05
1.846078606e-05
1.855993547e-05
1.85599647e-05
1.855985242e-05
1.864403204e-05
1.864358819e-05
1.864396146e-05
)
;
    }
    procBoundary0to1
    {
        type            processor;
        value           nonuniform List<scalar> 9(1.867178966e-05 1.867178895e-05 1.867178966e-05 1.867179577e-05 1.867179507e-05 1.867179578e-05 1.867180326e-05 1.867180255e-05 1.867180326e-05);
    }
}


// ************************************************************************* //
