/*--------------------------------*- C++ -*----------------------------------*\
  =========                 |
  \\      /  F ield         | OpenFOAM: The Open Source CFD Toolbox
   \\    /   O peration     | Website:  https://openfoam.org
    \\  /    A nd           | Version:  7
     \\/     M anipulation  |
\*---------------------------------------------------------------------------*/
FoamFile
{
    version     2.0;
    format      ascii;
    class       volScalarField;
    location    "0.055";
    object      p;
}
// * * * * * * * * * * * * * * * * * * * * * * * * * * * * * * * * * * * * * //

dimensions      [1 -1 -2 0 0 0 0];

internalField   nonuniform List<scalar> 
27
(
101329.143
101329.1363
101329.143
101329.0759
101329.0692
101329.0759
101329.0232
101329.0163
101329.0232
101327.6105
101327.6061
101327.6105
101327.5437
101327.5392
101327.5437
101327.487
101327.4823
101327.487
101326.4427
101326.4384
101326.4427
101326.3769
101326.3724
101326.3769
101326.3212
101326.3166
101326.3212
)
;

boundaryField
{
    inlet
    {
        type            zeroGradient;
    }
    outlet
    {
        type            totalPressure;
        rho             rho;
        psi             none;
        gamma           1;
        p0              nonuniform 0();
        value           nonuniform 0();
    }
    walls
    {
        type            zeroGradient;
    }
    procBoundary0to1
    {
        type            processor;
        value           nonuniform List<scalar> 9(101325.8569 101325.8536 101325.8569 101325.7967 101325.7932 101325.7967 101325.7438 101325.7402 101325.7438);
    }
}


// ************************************************************************* //
