/*--------------------------------*- C++ -*----------------------------------*\
  =========                 |
  \\      /  F ield         | OpenFOAM: The Open Source CFD Toolbox
   \\    /   O peration     | Website:  https://openfoam.org
    \\  /    A nd           | Version:  7
     \\/     M anipulation  |
\*---------------------------------------------------------------------------*/
FoamFile
{
    version     2.0;
    format      ascii;
    class       volScalarField;
    location    "0.055";
    object      pDyn;
}
// * * * * * * * * * * * * * * * * * * * * * * * * * * * * * * * * * * * * * //

dimensions      [1 -1 -2 0 0 0 0];

internalField   nonuniform List<scalar> 
27
(
1.717965094
1.732097258
1.717965526
1.73286413
1.747385358
1.7328644
1.71951721
1.733689826
1.719517578
1.891672331
1.916661407
1.89167391
1.917775139
1.942949296
1.917775761
1.893943518
1.919055105
1.893944577
1.833769259
1.872158821
1.833770388
1.870378995
1.909079155
1.870379917
1.830742599
1.869337922
1.830743796
)
;

boundaryField
{
    inlet
    {
        type            calculated;
        value           nonuniform List<scalar> 9(2.217813237 2.222724497 2.217810614 2.222725822 2.228226335 2.222723192 2.217813237 2.222724497 2.217810614);
    }
    outlet
    {
        type            calculated;
        value           nonuniform 0();
    }
    walls
    {
        type            calculated;
        value           uniform 0;
    }
    procBoundary0to1
    {
        type            processor;
        value           nonuniform List<scalar> 9(1.585575922 1.636750916 1.585573365 1.627431375 1.679312801 1.627432445 1.569608886 1.621009026 1.569607682);
    }
}


// ************************************************************************* //
