/*--------------------------------*- C++ -*----------------------------------*\
  =========                 |
  \\      /  F ield         | OpenFOAM: The Open Source CFD Toolbox
   \\    /   O peration     | Website:  https://openfoam.org
    \\  /    A nd           | Version:  7
     \\/     M anipulation  |
\*---------------------------------------------------------------------------*/
FoamFile
{
    version     2.0;
    format      ascii;
    class       surfaceScalarField;
    location    "0.055";
    object      phi;
}
// * * * * * * * * * * * * * * * * * * * * * * * * * * * * * * * * * * * * * //

dimensions      [0 3 -1 0 0 0 0];

internalField   nonuniform List<scalar> 
54
(
3.571806434e-08
4.934153761e-08
3.061507413e-05
-3.571435659e-08
4.867821752e-08
3.075519422e-05
4.934178412e-08
3.061507678e-05
3.519710082e-08
-2.249843234e-08
3.076879239e-05
-3.519362446e-08
-2.196165222e-08
3.091030742e-05
-2.249865539e-08
3.076879374e-05
3.594586787e-08
3.06411339e-05
-3.59420703e-08
3.078179582e-05
3.064113555e-05
4.04261562e-08
2.675842179e-08
2.902981112e-05
-4.042101138e-08
2.653110496e-08
2.927374733e-05
2.675882052e-08
2.902981772e-05
4.03823635e-08
-5.471778105e-08
2.927385782e-05
-4.037665916e-08
-5.461512059e-08
2.951772895e-05
-5.471823077e-08
2.92738601e-05
4.073556124e-08
2.902719797e-05
-4.07300623e-08
2.927241809e-05
2.902720239e-05
5.134666667e-08
1.12039712e-08
-5.134738527e-08
1.16284726e-08
1.120421035e-08
5.174425582e-08
-8.925092963e-08
-5.174092279e-08
-8.92356407e-08
-8.925219789e-08
5.177872941e-08
-5.178001163e-08
)
;

boundaryField
{
    inlet
    {
        type            calculated;
        value           nonuniform List<scalar> 9(-3.102855299e-05 -3.106290004e-05 -3.102855299e-05 -3.106290004e-05 -3.11013218e-05 -3.106290004e-05 -3.102855299e-05 -3.106290004e-05 -3.102855299e-05);
    }
    outlet
    {
        type            calculated;
        value           nonuniform 0();
    }
    walls
    {
        type            calculated;
        value           uniform 0;
    }
    procBoundary0to1
    {
        type            processor;
        value           nonuniform List<scalar> 9(2.70017478e-05 2.736550867e-05 2.700174704e-05 2.73249307e-05 2.768842913e-05 2.732493729e-05 2.692392379e-05 2.729056883e-05 2.692392778e-05);
    }
}


// ************************************************************************* //
