/*--------------------------------*- C++ -*----------------------------------*\
  =========                 |
  \\      /  F ield         | OpenFOAM: The Open Source CFD Toolbox
   \\    /   O peration     | Website:  https://openfoam.org
    \\  /    A nd           | Version:  7
     \\/     M anipulation  |
\*---------------------------------------------------------------------------*/
FoamFile
{
    version     2.0;
    format      ascii;
    class       surfaceScalarField;
    location    "0.055";
    object      rhoPhi;
}
// * * * * * * * * * * * * * * * * * * * * * * * * * * * * * * * * * * * * * //

dimensions      [1 0 -1 0 0 0 0];

internalField   nonuniform List<scalar> 
54
(
4.184322396e-08
5.78029196e-08
3.575350976e-05
-4.183888038e-08
5.702507983e-08
3.591683798e-05
5.780320838e-08
3.575351292e-05
4.12323416e-08
-2.635658267e-08
3.593274564e-05
-4.122826915e-08
-2.572740544e-08
3.609759757e-05
-2.635684396e-08
3.593274723e-05
4.211004342e-08
3.578399431e-05
-4.210559461e-08
3.594795657e-05
3.578399627e-05
4.70634725e-08
3.115175173e-08
3.370670686e-05
-4.705748308e-08
3.088691016e-08
3.399029714e-05
3.1152216e-08
3.370671472e-05
4.70122807e-08
-6.370174516e-08
3.39904965e-05
-4.700563986e-08
-6.358181417e-08
3.427383696e-05
-6.370226884e-08
3.399049921e-05
4.742386973e-08
3.370379781e-05
-4.741746799e-08
3.398888624e-05
3.370380308e-05
5.946158128e-08
1.297467927e-08
-5.946241366e-08
1.346656925e-08
1.297495628e-08
5.992346096e-08
-1.033565804e-07
-5.991960116e-08
-1.033411863e-07
-1.033580495e-07
5.996214026e-08
-5.996362529e-08
)
;

boundaryField
{
    inlet
    {
        type            calculated;
        value           nonuniform List<scalar> 9(-3.659598198e-05 -3.663646761e-05 -3.659593869e-05 -3.663648945e-05 -3.668178091e-05 -3.663644608e-05 -3.659598198e-05 -3.663646761e-05 -3.659593869e-05);
    }
    outlet
    {
        type            calculated;
        value           nonuniform 0();
    }
    walls
    {
        type            calculated;
        value           uniform 0;
    }
    procBoundary0to1
    {
        type            processor;
        value           nonuniform List<scalar> 9(3.120301791e-05 3.162494202e-05 3.120301718e-05 3.157801049e-05 3.199944296e-05 3.157801819e-05 3.111299437e-05 3.153826707e-05 3.111299911e-05);
    }
}


// ************************************************************************* //
