/*--------------------------------*- C++ -*----------------------------------*\
  =========                 |
  \\      /  F ield         | OpenFOAM: The Open Source CFD Toolbox
   \\    /   O peration     | Website:  https://openfoam.org
    \\  /    A nd           | Version:  7
     \\/     M anipulation  |
\*---------------------------------------------------------------------------*/
FoamFile
{
    version     2.0;
    format      ascii;
    class       volVectorField::Internal;
    location    "0.055";
    object      steelCloud:UTrans;
}
// * * * * * * * * * * * * * * * * * * * * * * * * * * * * * * * * * * * * * //

dimensions      [1 1 -1 0 0 0 0];

value           nonuniform List<vector> 
27
(
(-6.373817232e-08 4.190976238e-15 -2.919953795e-10)
(-6.386038932e-08 4.199012373e-15 -2.925552763e-10)
(-6.373817232e-08 4.190976238e-15 -2.919953795e-10)
(-6.386038932e-08 4.199012373e-15 -2.925552763e-10)
(-6.399678546e-08 4.207980829e-15 -2.931801302e-10)
(-6.386038932e-08 4.199012373e-15 -2.925552763e-10)
(-6.373817232e-08 4.190976238e-15 -2.919953795e-10)
(-6.386038932e-08 4.199012373e-15 -2.925552763e-10)
(-6.373817232e-08 4.190976238e-15 -2.919953795e-10)
(-5.914399428e-08 3.888895236e-15 -2.709486706e-10)
(-5.927055179e-08 3.897216772e-15 -2.715284519e-10)
(-5.914399428e-08 3.888895236e-15 -2.709486706e-10)
(-5.927055179e-08 3.897216772e-15 -2.715284519e-10)
(-5.941662475e-08 3.906821508e-15 -2.72197637e-10)
(-5.927055178e-08 3.897216772e-15 -2.715284519e-10)
(-5.914399428e-08 3.888895236e-15 -2.709486706e-10)
(-5.927055178e-08 3.897216772e-15 -2.715284519e-10)
(-5.914399428e-08 3.888895236e-15 -2.709486706e-10)
(-5.056556119e-08 3.324837499e-15 -2.316494134e-10)
(-5.065231736e-08 3.330541977e-15 -2.320468581e-10)
(-5.056556119e-08 3.324837499e-15 -2.316494134e-10)
(-5.065231736e-08 3.330541977e-15 -2.320468581e-10)
(-5.074973143e-08 3.336947245e-15 -2.324931285e-10)
(-5.065231736e-08 3.330541977e-15 -2.320468581e-10)
(-5.056556119e-08 3.324837499e-15 -2.316494134e-10)
(-5.065231736e-08 3.330541977e-15 -2.320468581e-10)
(-5.056556119e-08 3.324837499e-15 -2.316494134e-10)
)
;


// ************************************************************************* //
