/*--------------------------------*- C++ -*----------------------------------*\
  =========                 |
  \\      /  F ield         | OpenFOAM: The Open Source CFD Toolbox
   \\    /   O peration     | Website:  https://openfoam.org
    \\  /    A nd           | Version:  7
     \\/     M anipulation  |
\*---------------------------------------------------------------------------*/
FoamFile
{
    version     2.0;
    format      ascii;
    class       volScalarField::Internal;
    location    "0.055";
    object      steelCloud:hsTrans;
}
// * * * * * * * * * * * * * * * * * * * * * * * * * * * * * * * * * * * * * //

dimensions      [1 2 -2 0 0 0 0];

value           nonuniform List<scalar> 
27
(
0.0002377880393
0.0002382439944
0.0002377880393
0.0002382439944
0.0002387528476
0.0002382439944
0.0002377880393
0.0002382439944
0.0002377880393
0.0002206485365
0.0002211206846
0.0002206485365
0.0002211206846
0.0002216656391
0.0002211206846
0.0002206485365
0.0002211206846
0.0002206485365
0.0001886449708
0.0001889686321
0.0001886449708
0.0001889686321
0.0001893320548
0.0001889686321
0.0001886449708
0.0001889686321
0.0001886449708
)
;


// ************************************************************************* //
