/*--------------------------------*- C++ -*----------------------------------*\
  =========                 |
  \\      /  F ield         | OpenFOAM: The Open Source CFD Toolbox
   \\    /   O peration     | Website:  https://openfoam.org
    \\  /    A nd           | Version:  7
     \\/     M anipulation  |
\*---------------------------------------------------------------------------*/
FoamFile
{
    version     2.0;
    format      ascii;
    class       volScalarField::Internal;
    location    "0.055";
    object      steelCloud:UCoeff;
}
// * * * * * * * * * * * * * * * * * * * * * * * * * * * * * * * * * * * * * //

dimensions      [1 0 0 0 0 0 0];

value           nonuniform List<scalar> 
27
(
3.493480989e-08
3.500179687e-08
3.493480989e-08
3.500179687e-08
3.507655542e-08
3.500179687e-08
3.493480989e-08
3.500179687e-08
3.493480989e-08
3.241674685e-08
3.248611285e-08
3.241674685e-08
3.248611285e-08
3.256617525e-08
3.248611285e-08
3.241674685e-08
3.248611285e-08
3.241674685e-08
2.771491875e-08
2.77624697e-08
2.771491875e-08
2.77624697e-08
2.781586222e-08
2.77624697e-08
2.771491875e-08
2.77624697e-08
2.771491875e-08
)
;


// ************************************************************************* //
