/*--------------------------------*- C++ -*----------------------------------*\
  =========                 |
  \\      /  F ield         | OpenFOAM: The Open Source CFD Toolbox
   \\    /   O peration     | Website:  https://openfoam.org
    \\  /    A nd           | Version:  7
     \\/     M anipulation  |
\*---------------------------------------------------------------------------*/
FoamFile
{
    version     2.0;
    format      ascii;
    class       volScalarField;
    location    "0.055";
    object      T;
}
// * * * * * * * * * * * * * * * * * * * * * * * * * * * * * * * * * * * * * //

dimensions      [0 0 0 1 0 0 0];

internalField   nonuniform List<scalar> 
27
(
300.0185806
300.0223886
300.0185806
300.0223863
300.0266364
300.0223863
300.0185767
300.0223845
300.0185767
301.8972049
301.898537
301.8972038
301.8977122
301.9003164
301.8977119
301.8956198
301.8969292
301.895619
303.4994341
303.4917172
303.4994319
303.4909066
303.4851132
303.4909057
303.4980411
303.4902321
303.4980394
)
;

boundaryField
{
    inlet
    {
        type            fixedValue;
        value           uniform 298;
    }
    outlet
    {
        type            zeroGradient;
    }
    walls
    {
        type            zeroGradient;
    }
    procBoundary0to1
    {
        type            processor;
        value           nonuniform List<scalar> 9(304.7791325 304.7566681 304.7791319 304.7578563 304.7377896 304.7578555 304.7816106 304.7588268 304.78161);
    }
}


// ************************************************************************* //
