/*--------------------------------*- C++ -*----------------------------------*\
  =========                 |
  \\      /  F ield         | OpenFOAM: The Open Source CFD Toolbox
   \\    /   O peration     | Website:  https://openfoam.org
    \\  /    A nd           | Version:  7
     \\/     M anipulation  |
\*---------------------------------------------------------------------------*/
FoamFile
{
    version     2.0;
    format      ascii;
    class       volVectorField;
    location    "0.055";
    object      U;
}
// * * * * * * * * * * * * * * * * * * * * * * * * * * * * * * * * * * * * * //

dimensions      [0 1 -1 0 0 0 0];

internalField   nonuniform List<vector> 
27
(
(1.712618342 0.001657713378 -0.007630300586)
(1.719662068 6.148857517e-08 -0.007674967459)
(1.712618417 -0.001657441262 -0.007630310267)
(1.720055535 0.001634235458 0.003479100047)
(1.72726316 5.144079493e-08 0.003500100866)
(1.720055577 -0.001633969867 0.00347909882)
(1.713373011 0.001651661415 -0.0111267893)
(1.720434028 6.327806577e-08 -0.01113121631)
(1.71337307 -0.001651386815 -0.0111267842)
(1.802666049 0.002972395707 -0.01507722805)
(1.814549027 -2.323838022e-08 -0.01513312236)
(1.802666367 -0.002971693407 -0.01507721162)
(1.815114688 0.00295073675 0.008235592053)
(1.827008949 -1.609428731e-08 0.008296368098)
(1.815114833 -0.002950017864 0.008235576599)
(1.803679422 0.002943681135 -0.02138306333)
(1.815614151 -1.407126322e-08 -0.02142608184)
(1.803679623 -0.002942968217 -0.02138306777)
(1.779431775 0.004172759377 -0.02277856562)
(1.797965633 -5.355433101e-07 -0.02282468821)
(1.779432212 -0.004171702943 -0.02277841368)
(1.797198029 0.00416254962 0.01330931856)
(1.815704253 -3.727473039e-07 0.01344290573)
(1.797198279 -0.004161324151 0.01330926038)
(1.777825452 0.004104392128 -0.03170892447)
(1.796474034 -5.507383712e-07 -0.03180711203)
(1.777825847 -0.004103354746 -0.03170909657)
)
;

boundaryField
{
    inlet
    {
        type            interstitialInletVelocity;
        inletVelocity   uniform (1.23 0 0);
        value           nonuniform List<vector> 9((1.939284562 0 0) (1.941431252 0 0) (1.939284562 0 0) (1.941431252 0 0) (1.943832612 0 0) (1.941431252 0 0) (1.939284562 0 0) (1.941431252 0 0) (1.939284562 0 0));
    }
    outlet
    {
        type            pressureInletOutletVelocity;
        phi             alphaRhoPhi;
        value           nonuniform 0();
    }
    walls
    {
        type            noSlip;
    }
    procBoundary0to1
    {
        type            processor;
        value           nonuniform List<vector> 9((1.65787916 0.005051464405 -0.03187430534) (1.684410842 -1.404576374e-06 -0.03190124073) (1.657878835 -0.005050119108 -0.03187398069) (1.67982355 0.00503490112 0.0169442135) (1.70637585 -9.893217523e-07 0.01719983369) (1.679823978 -0.005033136986 0.01694427064) (1.649289258 0.004921960567 -0.04271462555) (1.676071502 -1.277751224e-06 -0.04284472695) (1.649289263 -0.004920491973 -0.04271492898));
    }
}


// ************************************************************************* //
