/*--------------------------------*- C++ -*----------------------------------*\
  =========                 |
  \\      /  F ield         | OpenFOAM: The Open Source CFD Toolbox
   \\    /   O peration     | Website:  https://openfoam.org
    \\  /    A nd           | Version:  7
     \\/     M anipulation  |
\*---------------------------------------------------------------------------*/
FoamFile
{
    version     2.0;
    format      ascii;
    class       volScalarField;
    location    "60";
    object      alpha;
}
// * * * * * * * * * * * * * * * * * * * * * * * * * * * * * * * * * * * * * //

dimensions      [0 0 0 0 0 0 0];

internalField   nonuniform List<scalar> 
16320
(
0.1521288101
0.1801278611
0.2043107105
0.2213237745
0.2294684843
0.227543564
0.2177693449
0.2036182628
0.1868131622
0.1711645825
0.1587718167
0.1524280066
0.1536744616
0.1607007127
0.1680254494
0.172355214
0.1747718619
0.1769780578
0.1779241876
0.171344051
0.1586348886
0.1870017121
0.2117190201
0.2299169233
0.2382976105
0.2356444196
0.224896843
0.2127195435
0.1996413831
0.1862104535
0.1742631791
0.1662966473
0.1646582515
0.1684676248
0.1750375077
0.1802064306
0.1839021568
0.18620844
0.1857282469
0.1805843532
0.1518931659
0.1826778425
0.2086092765
0.2274004425
0.2344860237
0.231480068
0.2217716058
0.2127922376
0.205213372
0.1968816891
0.1868063364
0.1781213197
0.1729424059
0.1730052306
0.1772165424
0.1829428675
0.1876199334
0.1897103179
0.1879605233
0.1828051305
0.141045252
0.173366581
0.1997453426
0.2176054794
0.2228237307
0.2193752101
0.2114216886
0.2062902395
0.2036908523
0.2006528518
0.1945145615
0.1874168435
0.180910024
0.1785005377
0.1809561127
0.1869357555
0.1926252466
0.1942154369
0.1921378207
0.1858489652
0.1334163404
0.1642419534
0.1886705515
0.2044037247
0.2092664515
0.2088838868
0.2048290873
0.2025792625
0.2026750684
0.2026768731
0.2019643073
0.1989159399
0.1942944918
0.1913702951
0.1921274511
0.1958653219
0.2000274215
0.2007338326
0.1985790205
0.190754114
0.1335236531
0.1617383792
0.182761681
0.1968105236
0.2036111689
0.2079318839
0.2083896339
0.2068148925
0.2056031444
0.2048726376
0.2070620256
0.2073920128
0.2059089163
0.2049945608
0.2046992647
0.2065709917
0.208686757
0.2093983884
0.206711592
0.19621829
0.1428050054
0.1691321678
0.1879874913
0.2007630869
0.2092828492
0.2160548547
0.2187378467
0.2172179093
0.2133950565
0.2096179214
0.2111021947
0.2118732146
0.2108338505
0.2108920349
0.2109686267
0.2131432164
0.2154784143
0.2173912643
0.2142094594
0.199355864
0.1545003889
0.1793044272
0.1968815217
0.2081189413
0.2169018904
0.2237215777
0.2265101696
0.2243540985
0.2180993161
0.2098705179
0.2066065662
0.2053004842
0.2042949025
0.2055054643
0.2087980314
0.2142398554
0.2194468939
0.2231792145
0.2195423834
0.2008346502
0.1653156286
0.1879367878
0.2037222385
0.2138483055
0.2213969026
0.2270871844
0.2283963483
0.2264782791
0.2182039651
0.204069626
0.1931485904
0.1878391521
0.1859288192
0.1886311171
0.1958848919
0.2063145
0.2166249858
0.2240535996
0.2216216973
0.2003187407
0.1732864011
0.1920697696
0.2052876912
0.2150223013
0.2212568835
0.2243946983
0.2235161051
0.221733248
0.2132383052
0.1968498961
0.1801783425
0.1698577121
0.1660254305
0.1691842813
0.1806834659
0.1967826105
0.2124020562
0.2225260742
0.2201326653
0.1976165973
0.1782011929
0.1925393025
0.2027189857
0.2117612139
0.2177901008
0.2201192335
0.2191022312
0.2169573389
0.2083678136
0.1927872112
0.1749439001
0.1607625488
0.1524960243
0.1527473346
0.166150795
0.1872824085
0.2067308882
0.2188836343
0.2154500793
0.1927202789
0.1818040417
0.1920941134
0.1986973928
0.2082339465
0.2168143433
0.2205551783
0.2206986307
0.2184602517
0.2122263688
0.2009478463
0.1863998779
0.1713818712
0.1591976678
0.1535878532
0.1610427659
0.1797294294
0.1991786241
0.2124338242
0.2098632825
0.1898548382
0.183548126
0.1925533406
0.1965911496
0.2048682249
0.2148555104
0.2209698542
0.2239601382
0.2241759139
0.2220518945
0.2171130013
0.207127191
0.1937076913
0.1785728356
0.1673809238
0.1654786816
0.1761461776
0.192899445
0.2072154145
0.2092493912
0.1949047378
0.1847131654
0.1949294024
0.1984249822
0.2032406711
0.210689222
0.2179452231
0.2254445216
0.2304597554
0.2315766164
0.2307742071
0.2246060917
0.2128853596
0.1961095143
0.1810002154
0.1726124043
0.1762990626
0.1894552766
0.2047813025
0.2122804087
0.2020014292
0.1878633185
0.1980192135
0.1999685401
0.2010901806
0.2059580102
0.2133765471
0.2224748737
0.2305287348
0.2342632359
0.2360188599
0.2335570056
0.2234388656
0.207056223
0.1906884276
0.1814987072
0.1829402159
0.1930979782
0.206101229
0.2131985915
0.2024406863
0.1920831616
0.2017309516
0.2015196373
0.1996176812
0.2015413166
0.2080091933
0.2162835184
0.2240351788
0.2287828786
0.23251546
0.2328973311
0.2251656412
0.2112720735
0.1964578062
0.1896319785
0.1926510247
0.200234133
0.2087563785
0.2102375403
0.1971698816
0.1917506457
0.1998961673
0.1982204767
0.1953161061
0.1954248692
0.2003355292
0.2080197491
0.2166635475
0.2230478208
0.2270012563
0.2272925141
0.2220749792
0.2134985771
0.2025581543
0.1978956699
0.2015632143
0.205785982
0.2086928303
0.2038669825
0.1894747046
0.1839637527
0.1908928004
0.1889892303
0.1862054063
0.186620552
0.1927697887
0.2021038604
0.2111261138
0.2175234967
0.2199913878
0.2202305935
0.2183159713
0.2152896133
0.2087938787
0.2064945805
0.2096295966
0.2104038964
0.2082638302
0.1990996851
0.1844547475
0.1693735116
0.1759775863
0.1758206214
0.1761135484
0.1795336327
0.1877375774
0.1987968654
0.2066039439
0.2101231129
0.2101022132
0.2106823503
0.2129438934
0.2155658424
0.2136019393
0.2128860399
0.2147369936
0.2128211202
0.2076517914
0.1961000615
0.1801931671
0.1486349237
0.1587026746
0.1631367388
0.1680627807
0.1752986439
0.1840975504
0.1927215597
0.1957586588
0.1946085972
0.191792513
0.1943622228
0.201497759
0.2077720309
0.2086198544
0.2095177536
0.2113308521
0.2091777115
0.2032152613
0.1903496462
0.1717546819
0.18431386
0.2104665007
0.2319349868
0.2465238571
0.2522475723
0.2492364992
0.2404593828
0.2280165287
0.2140346532
0.2012231104
0.1914219769
0.1866610095
0.1879605989
0.1932236006
0.1988135315
0.2019862213
0.2040145348
0.2063474117
0.206981021
0.1999270704
0.1905006138
0.2166635666
0.2388266089
0.254680912
0.2612522822
0.2577183365
0.247428204
0.2360896212
0.2252889916
0.2148607351
0.2052824024
0.1988315209
0.1974635653
0.2005443383
0.2061625099
0.2109074399
0.2142776354
0.216495069
0.2157954721
0.2099167951
0.1845092796
0.2126265148
0.2359787283
0.2526529095
0.2586758195
0.2549970116
0.2454014546
0.2363569575
0.2300800643
0.2238235202
0.2154355349
0.2079562569
0.2035871378
0.2040112397
0.2084261218
0.2144612303
0.2193148358
0.2213345628
0.2195374372
0.2135603774
0.1745732555
0.2040600081
0.2276277185
0.2436831604
0.248587692
0.2450801041
0.2377732167
0.2322855785
0.2301691843
0.2278506281
0.2223110983
0.2157512708
0.2104943083
0.209120646
0.2124530218
0.2187427498
0.2244951776
0.2260214812
0.2238204356
0.2168946212
0.1682478891
0.1966219059
0.2183193005
0.2323305119
0.2371409463
0.2364608491
0.2329819939
0.2305430739
0.2305578574
0.2306696822
0.2295092589
0.2265367634
0.2229708547
0.2213856488
0.2231085779
0.227366907
0.2314320499
0.2319218705
0.2291485144
0.2205494624
0.1687811589
0.194759521
0.213638116
0.2261117983
0.23245784
0.2358234532
0.2363937331
0.2354902947
0.2345642524
0.2343798554
0.2354467594
0.2354643006
0.234318333
0.2341430577
0.2346089756
0.2368390334
0.2387288805
0.2388312265
0.2355743621
0.224324235
0.1770951294
0.2014771803
0.2185943198
0.230309231
0.2380320213
0.2436599738
0.245718634
0.2447724282
0.2415289611
0.2387144592
0.2391325208
0.2394414253
0.2390816929
0.2398020821
0.2407330634
0.2428337068
0.2445981842
0.2450254079
0.2409912348
0.225756607
0.1879821258
0.2108424987
0.2269016625
0.2375243393
0.2456861097
0.2514308899
0.2531031171
0.2508334622
0.244739593
0.2375441592
0.2339141489
0.2321168621
0.2321822818
0.2344001015
0.2387455864
0.2438635568
0.2478567224
0.2495201246
0.2446607145
0.2257995423
0.198022034
0.2184631053
0.2327032139
0.2419544982
0.2491369238
0.2538748578
0.2542327988
0.251689661
0.2437273983
0.2311814744
0.2207463123
0.2152420765
0.2149668738
0.2191111584
0.22745447
0.2371536545
0.2454522468
0.249843428
0.2451423068
0.2238523449
0.2060537274
0.2226988791
0.2340555588
0.2418570503
0.2471310744
0.2497682774
0.2489449187
0.2464021378
0.2382566003
0.2233926973
0.207843892
0.1982333035
0.1967437232
0.2017524232
0.2136575908
0.2283281471
0.2409328988
0.2477181531
0.2425748583
0.2202542221
0.2106793819
0.2234388431
0.2318138138
0.2381726803
0.2424435777
0.2439637735
0.2436638345
0.2416380256
0.2340211788
0.2198869408
0.2034782433
0.1905414568
0.1849649057
0.1871525633
0.1998394435
0.2182435226
0.2340923058
0.2428992469
0.2374736354
0.2157561624
0.2136306529
0.2236391358
0.2291090463
0.2353330506
0.2406034171
0.2427919332
0.2435029392
0.242224949
0.2371936163
0.2273136851
0.2138073012
0.200308812
0.1906039151
0.1874312566
0.1944731008
0.210144741
0.2261560495
0.23610831
0.2322559926
0.2133155506
0.2142490227
0.2240631525
0.2277289199
0.2330762514
0.2392229362
0.2435446256
0.246683105
0.2479608212
0.2463628829
0.2417757342
0.2320555138
0.2195372966
0.2066236341
0.1980050673
0.1967715333
0.2054162262
0.2193957685
0.2306614946
0.2315870802
0.2175206441
0.2147994469
0.2257616608
0.2287000188
0.2312617433
0.2356777859
0.2416307336
0.2489426388
0.2543785073
0.2558717951
0.2546760317
0.2480198589
0.2362645775
0.2214704968
0.2089887292
0.2024002636
0.2051239313
0.2159093706
0.2279258595
0.233667199
0.2233971958
0.2173755339
0.2281027363
0.229404207
0.2291435596
0.2318512387
0.2379455573
0.2468237182
0.254758981
0.258699222
0.2595507859
0.2554371059
0.2445238603
0.2298813088
0.2166271234
0.2097719509
0.2111249063
0.2190012508
0.2289138295
0.2339232078
0.2232226679
0.2214430663
0.2309546575
0.2302388651
0.2274442023
0.2282448778
0.2334394117
0.2414167369
0.2491358929
0.2544134035
0.2573841786
0.2555042686
0.2466960583
0.234073909
0.2222889675
0.2171310549
0.2197373863
0.225293062
0.2311184227
0.2308303068
0.2178551599
0.2218437928
0.2293787568
0.227281155
0.2233719193
0.2225443984
0.2263865858
0.2338851447
0.2424275231
0.2489215583
0.2524482502
0.2511257612
0.2454475769
0.2376641112
0.2290289219
0.2255804377
0.228322764
0.2308272396
0.2313358292
0.2252109627
0.2109196244
0.2154732223
0.2213934969
0.2186936881
0.2147349575
0.2142156705
0.2191844216
0.227901553
0.2369282864
0.2433095613
0.2457011554
0.2446946053
0.2424122792
0.2400540284
0.2354630635
0.2338280539
0.2358018893
0.2350621173
0.2310973337
0.2211087917
0.206332157
0.2018188988
0.2074888336
0.2063380177
0.2049261686
0.2065789355
0.2134850796
0.223623483
0.231307607
0.2349417212
0.2353231938
0.2352812649
0.2372255688
0.2400096557
0.2393342238
0.2394129872
0.2403173177
0.2371713056
0.2303573796
0.2181196169
0.2023106052
0.1823445192
0.1911837445
0.1939134928
0.1966822521
0.2013430462
0.2084969972
0.2163976456
0.2197805629
0.2193207152
0.2174060267
0.2195035522
0.2256675805
0.2317266212
0.2334645591
0.2350053003
0.2361694303
0.2330458324
0.2260271162
0.2130533702
0.1949741375
0.2337457898
0.2572206543
0.2749123837
0.2857606901
0.2881680639
0.2841711191
0.2764662545
0.2664456994
0.2559001997
0.2471151086
0.2408995471
0.2384281717
0.2396667112
0.2428984722
0.2464295672
0.2485273366
0.2504416047
0.2524819913
0.2525176575
0.244524937
0.2394098114
0.2625050628
0.2807698687
0.2930002366
0.2965868926
0.2921143103
0.2825067631
0.2728980162
0.2647989121
0.2581551287
0.2518850221
0.2475376654
0.2466907175
0.2489367803
0.2536881247
0.2581851827
0.2617005072
0.2638670338
0.2630660922
0.2562643247
0.2340724499
0.258143914
0.2773083563
0.2904904205
0.2945391067
0.2906684693
0.2818744077
0.2738623447
0.2690733021
0.2653121111
0.2593067868
0.253523294
0.2504012816
0.2513616419
0.256312118
0.2627281154
0.267807158
0.2699645578
0.268262844
0.2616537809
0.2261273016
0.250840312
0.2698975404
0.2826302376
0.2866244072
0.2838850631
0.2778876877
0.2730186389
0.2713669888
0.2696477317
0.2644657919
0.2586840261
0.2549852978
0.2552665584
0.2599999643
0.2671379641
0.2730968847
0.2747051378
0.2722554507
0.2646506753
0.2220493881
0.2460143255
0.2632274963
0.2742056501
0.2783667183
0.2779876375
0.2756945712
0.2741504224
0.2741769021
0.2739672819
0.2712032385
0.2676480161
0.2653824564
0.2657051025
0.2692726694
0.2746580663
0.2788891524
0.2789665052
0.2754959635
0.2661345834
0.2235156702
0.2458814792
0.2611165327
0.2711109004
0.2762832754
0.2787903731
0.2794734877
0.2797168014
0.279485819
0.2793502225
0.2782941804
0.2771509423
0.2766720616
0.2778071817
0.2799260291
0.2830453234
0.2846030507
0.2832950478
0.2788852303
0.2670531529
0.2308114169
0.2519712531
0.2662760212
0.2760412373
0.2823260134
0.2862849027
0.2875717781
0.2870730341
0.2847346205
0.2826228913
0.2811935726
0.2806376341
0.2811994099
0.2834015043
0.2856871723
0.28819272
0.2887567321
0.287027937
0.2814288325
0.2662011032
0.2395909595
0.2592569982
0.272708693
0.2819003198
0.2887336112
0.2928629236
0.2935290006
0.2910870673
0.2857614165
0.2797109251
0.2752416503
0.2730362964
0.2745758691
0.2789057249
0.2841743136
0.2887203672
0.2903423377
0.2892586092
0.2826340715
0.2643060123
0.2481454704
0.2653325218
0.2765868868
0.2843394042
0.2903092466
0.2938491127
0.293452504
0.2900319067
0.2822090434
0.2714224564
0.2618189454
0.2566607668
0.2587559407
0.2658152471
0.2750668527
0.2834686947
0.2883187287
0.2890050041
0.281544578
0.2609476776
0.2558458922
0.2693503984
0.277028262
0.2821483015
0.2857458735
0.2878520875
0.2870029549
0.2837337668
0.275554429
0.2629987219
0.2497570055
0.2417431774
0.2430584967
0.2510615913
0.2633051647
0.275366739
0.2834330869
0.2860030888
0.2780010888
0.2568334151
0.2602732444
0.2706958604
0.2752433673
0.2776963219
0.2793639974
0.280349109
0.2805110154
0.2786488604
0.2718517381
0.2600884338
0.246038712
0.2352964003
0.2330586158
0.2385369606
0.2507994825
0.2650353353
0.2756476843
0.2800151773
0.2726565001
0.2528649464
0.2618986411
0.271155073
0.273811958
0.275153781
0.2763158822
0.2773596553
0.2786241412
0.2783112892
0.2740990245
0.2658015567
0.2540418987
0.2428865595
0.23681204
0.2375265231
0.2448243876
0.2564033775
0.2669984775
0.2725984161
0.2678146801
0.2508820172
0.2613178737
0.2716244118
0.2738490158
0.2744950479
0.2758534174
0.2782507055
0.2815026992
0.2834456773
0.2822312181
0.278034438
0.2691769412
0.258162498
0.2488919164
0.2444592724
0.2451612562
0.2511329789
0.2600184148
0.2667236438
0.2665213824
0.253844049
0.2609822606
0.2723778098
0.2741862907
0.2730339367
0.2734466536
0.2772503405
0.2837010847
0.2890144883
0.290738542
0.2894808009
0.2826144984
0.271409852
0.2598463965
0.2517904327
0.2483324188
0.2498790308
0.256468761
0.263748265
0.2671144867
0.257489226
0.2630693723
0.273963935
0.274252126
0.2714274621
0.2709311854
0.274976837
0.2825509179
0.2899646454
0.2940572944
0.2943166819
0.2884292628
0.2772195845
0.2655566723
0.2572950662
0.2537363407
0.2545706627
0.2588771379
0.2643322294
0.2666490577
0.2564206119
0.2666694403
0.2758174491
0.2741917512
0.2699557945
0.2686188454
0.2719945724
0.278941878
0.2864900803
0.2920117774
0.2940814592
0.2898554257
0.2802349679
0.2701506472
0.262844834
0.2601457171
0.2618444509
0.264543105
0.2664953365
0.2641287899
0.2516374294
0.268222102
0.2749866991
0.2718361845
0.2666120383
0.2640654815
0.2663855354
0.2729244439
0.2811411342
0.2879218885
0.290826283
0.2880406994
0.2819118759
0.2755629
0.27016916
0.268280407
0.2694272401
0.2695492097
0.2669272964
0.2596576902
0.2457648648
0.2636027693
0.2685839187
0.2646842327
0.2593710463
0.2570199137
0.2599226868
0.2673083128
0.27569546
0.2822989081
0.2846121709
0.2827753365
0.280378169
0.2788563206
0.276841949
0.2760362759
0.2760097525
0.2731235246
0.2665832329
0.2559300679
0.241447533
0.2516782459
0.2566972826
0.2542200111
0.2505338387
0.2493963911
0.2535164914
0.2617354984
0.2687484171
0.2729767331
0.2740144993
0.2738222444
0.2754736008
0.2784683696
0.2796186893
0.2802819891
0.2793522184
0.2742784403
0.2652500731
0.252780479
0.2376973562
0.2342742972
0.2421084186
0.2430785475
0.2426544911
0.2432034668
0.2471130186
0.253060957
0.2561506168
0.2568924612
0.2563462515
0.2584240597
0.2638934698
0.2695320252
0.2724460471
0.2747832834
0.2746710439
0.2696652383
0.2606955976
0.24786184
0.2312091605
0.2821380499
0.3033832123
0.3180625781
0.325415555
0.3250962739
0.3205781887
0.3136603671
0.305735249
0.2981001673
0.2921033159
0.2884719312
0.2878279784
0.289166903
0.2913228818
0.2940664793
0.2963625721
0.2983327857
0.2999993629
0.2992976155
0.2906669591
0.2871136498
0.3073509636
0.3220409351
0.3307998801
0.3318362386
0.3271254748
0.3186243685
0.3109520828
0.3049619892
0.3004377945
0.2963691522
0.2936729984
0.2935068122
0.2954462573
0.3001303291
0.3050346433
0.3089910505
0.3112676362
0.3104737233
0.3033776268
0.2823612242
0.3022785489
0.3171003138
0.3268227206
0.329110406
0.325919893
0.3188567422
0.3129256403
0.3094237374
0.3063554811
0.3013211617
0.2966402254
0.2946738017
0.2963391121
0.3021817299
0.3092415618
0.3146695622
0.3170765873
0.3156528522
0.3093151797
0.2766914762
0.2961574512
0.310359855
0.3197374361
0.3228836045
0.3217014012
0.3179378375
0.3148692761
0.3131287712
0.3103628106
0.3041996358
0.298645887
0.2962797298
0.2982339615
0.3045595867
0.3127202402
0.3189827142
0.3205562739
0.3181035372
0.3108965061
0.2752238163
0.2939897653
0.30637245
0.31436066
0.3178791482
0.3184196281
0.3177326629
0.3176306012
0.3171391111
0.3152781741
0.3098014383
0.3051299603
0.3040029624
0.3061516038
0.3117682945
0.3184030042
0.3228287993
0.322256043
0.3184383384
0.3095228675
0.2780633244
0.2959580894
0.307098385
0.314661654
0.318645768
0.3208214581
0.3217418586
0.3229568361
0.3227881722
0.3216102926
0.3177326982
0.3150756997
0.315292301
0.3177526692
0.321535558
0.3256640013
0.3268703485
0.3241190195
0.3188524297
0.3076123046
0.2848183111
0.3019682337
0.3129022821
0.3204873991
0.3251667908
0.3277372476
0.3283428904
0.3280846173
0.3261662762
0.3239253076
0.3203287197
0.3188715963
0.3202962327
0.3238287703
0.3271227028
0.3299984646
0.3293989538
0.3260040345
0.3194238828
0.3053030396
0.29121858
0.3069291727
0.3171374528
0.3244123287
0.3296504902
0.33233119
0.3323302386
0.3297622716
0.3250184456
0.3195548709
0.3141048206
0.3117178033
0.314713057
0.3208129326
0.3264683551
0.3302538248
0.3296403143
0.3267210576
0.3194586878
0.3030811516
0.2976222018
0.3109998948
0.3186540749
0.3246779389
0.329350293
0.3317705679
0.3308132993
0.3267622051
0.318876401
0.3091751825
0.3002262524
0.2958982335
0.3004636003
0.3101812816
0.3197386956
0.3264954974
0.3282219473
0.326647382
0.318388175
0.3002003282
0.3041895882
0.3142642917
0.3178669307
0.3205889733
0.3229258361
0.3242937472
0.3232077066
0.3193939153
0.3109696955
0.3002537168
0.2892231594
0.2832655967
0.2873474903
0.2980682188
0.3102920018
0.319477798
0.3236489718
0.3236889461
0.315041932
0.2964909893
0.308061635
0.3159936501
0.3162706121
0.3149735935
0.314550222
0.3150743164
0.315610398
0.3139192849
0.307708345
0.2979605147
0.2863068944
0.2779607235
0.2787521847
0.2872827741
0.2992300743
0.3094666666
0.3157209767
0.3174018223
0.3100289919
0.2929366872
0.3086517605
0.3168042798
0.3160508306
0.3127718528
0.3106808538
0.3109687934
0.3127131507
0.3129029521
0.3090651606
0.30190781
0.2921924182
0.283616769
0.2808918343
0.2852658575
0.2930576742
0.3009863989
0.3068540792
0.3092938116
0.3046609991
0.290378903
0.3075345739
0.3177305782
0.3179118878
0.3141647416
0.3116783969
0.3125004335
0.3154187743
0.3170720316
0.3157801035
0.3118752867
0.3044357884
0.2953566445
0.2895775189
0.2893077123
0.2922188128
0.2959499338
0.3001852269
0.3028948584
0.3020775351
0.2915207819
0.3065300307
0.3178453048
0.3182983857
0.3137056837
0.3107342997
0.3124186164
0.3173627439
0.3215455188
0.3229191573
0.3217704492
0.3153818132
0.3053098943
0.2970647442
0.2935959771
0.293422857
0.2941032002
0.2970006964
0.3001301924
0.3014428603
0.2929729243
0.3080572542
0.3186608034
0.3178721856
0.3127704829
0.3096546642
0.3116666644
0.3172592763
0.3232669757
0.3269340421
0.3267505401
0.3199480885
0.3090805857
0.3007890276
0.2977586615
0.2975830725
0.2981560696
0.2995705336
0.3014370361
0.3012440338
0.2915968885
0.3109638192
0.3195247918
0.3170277871
0.3116568262
0.3086524541
0.310363628
0.3158925476
0.3224997101
0.3275108546
0.3286409341
0.3229986269
0.313298204
0.3063669314
0.303864156
0.303475822
0.3043970544
0.3047168718
0.3037380157
0.2998281167
0.2882090853
0.313477937
0.3194062826
0.3154296385
0.3094719877
0.305577138
0.3064317073
0.3116943149
0.3190198454
0.3255015202
0.327564782
0.3240522333
0.3182633925
0.314203032
0.3123247781
0.3112862566
0.3106102703
0.3085919291
0.303847272
0.2964129931
0.2838365426
0.3107721904
0.315057672
0.3103738663
0.304338873
0.3003575428
0.301081291
0.3069486406
0.3142046409
0.3205761929
0.3225312089
0.3203837643
0.3184675366
0.318259803
0.3186152511
0.3178847631
0.3156828645
0.3108797863
0.3027051148
0.2923492238
0.2791869625
0.3013399942
0.3061614367
0.3029399539
0.2976688514
0.2939785257
0.2949282679
0.30104615
0.306972666
0.3113144942
0.3126807244
0.3124755947
0.3140638817
0.3175176648
0.3202773815
0.3209083885
0.3179221488
0.3110525329
0.3005437908
0.2886251374
0.2750272627
0.2867692733
0.2943506697
0.2944484219
0.2915344692
0.2882933365
0.288309334
0.2920644564
0.2946224878
0.2959961722
0.2961335499
0.2979493254
0.3028231666
0.3082860048
0.3124938036
0.3152729834
0.3135292038
0.3063681598
0.2956255449
0.2832692962
0.2685001628
0.3236781681
0.3422353951
0.3539347277
0.3587303735
0.356969248
0.3521482013
0.3457568008
0.3397622256
0.3347328714
0.3305943087
0.3289535864
0.3296659735
0.3313334968
0.3332701372
0.3353644083
0.3376341057
0.3395011403
0.3411980195
0.3409440255
0.3332905815
0.3281586563
0.3451262812
0.3563859216
0.3625122118
0.3622666168
0.3576398856
0.3501844847
0.3445636282
0.3403987683
0.3365830669
0.3339090383
0.3326657951
0.3333880783
0.3356070678
0.3400544008
0.3449626826
0.3492088248
0.3517243899
0.3516545394
0.3454837393
0.3248733587
0.340424404
0.3510309665
0.3578853807
0.3593651046
0.3569406322
0.3513768913
0.3472806209
0.3445228886
0.3409671237
0.3362370467
0.3323746503
0.3316440642
0.3341906346
0.340696262
0.3480538221
0.3538375946
0.3563820643
0.355577125
0.3501447575
0.3213951029
0.3355999453
0.345012166
0.3517833913
0.3547600076
0.3551439328
0.3530557958
0.3510006346
0.3485022697
0.344031989
0.3370347031
0.3315905427
0.3303943928
0.3337088186
0.3412775572
0.3497485394
0.3559583181
0.3572271603
0.3550316214
0.3490779424
0.3221190504
0.3354375034
0.3434541478
0.3495813122
0.3531497743
0.3548673075
0.354953999
0.3548385919
0.3529903047
0.3487541441
0.3409431779
0.3354323966
0.3350446043
0.3385207022
0.3456494256
0.3530317714
0.3572646782
0.3560373527
0.352196797
0.3448705173
0.3267183935
0.339422244
0.34670085
0.3524936433
0.3559795637
0.358350259
0.359290404
0.3598407789
0.3584355744
0.3554115078
0.3490967448
0.3452076336
0.345885356
0.3489390629
0.3537146596
0.3584547408
0.3595467397
0.3562432343
0.3505004706
0.3409731785
0.3335859892
0.3459946386
0.3531834892
0.3586082801
0.3618574049
0.3638101253
0.3639854295
0.3633207816
0.3609716118
0.3578349289
0.3525541415
0.3504923145
0.35256265
0.3561446326
0.3596205573
0.362202391
0.3610863669
0.3573854519
0.3505754539
0.3385868827
0.3385141104
0.349651069
0.3559226423
0.3607283533
0.3639253319
0.3659952904
0.3658699254
0.3633711577
0.3586449263
0.3532608233
0.3471495177
0.3450074088
0.3488960239
0.3549533803
0.3601654773
0.3629261215
0.3613334241
0.3580544022
0.3509458989
0.3373531729
0.3426190187
0.3516703629
0.3553218891
0.3588123591
0.3616149708
0.363620453
0.3629358491
0.3591230222
0.351605747
0.3426701696
0.3342331828
0.3313230658
0.3374964173
0.3476528094
0.3564530238
0.3610878622
0.360893878
0.3586036334
0.3510105107
0.3361255407
0.3470634418
0.3536383564
0.3537431962
0.353800955
0.3547055029
0.3559631649
0.355677256
0.3521329759
0.3440868103
0.3342805712
0.3248543209
0.3210975281
0.3269975443
0.3384718331
0.3496272959
0.3560060351
0.3578631561
0.3568195452
0.3491099681
0.3341228429
0.3499040225
0.355439264
0.3524660094
0.3481119963
0.3462294741
0.3467290307
0.3483080567
0.3471491631
0.3418260007
0.333130184
0.3234965506
0.3174861488
0.3201527495
0.3299351481
0.3405217875
0.3471476768
0.3507260043
0.3511916585
0.3449856705
0.3313550903
0.3501187823
0.3570826223
0.3539766265
0.3476051115
0.3438185574
0.3436803472
0.3460464727
0.3463100147
0.3429147086
0.3360304733
0.3281977622
0.3218956188
0.3211894528
0.3273852735
0.3349930514
0.3399140558
0.3429451633
0.3434752427
0.3394715806
0.3283165512
0.3489415073
0.3586746927
0.3574347499
0.3513244858
0.346958922
0.3467816425
0.3489062537
0.3494261104
0.3477243337
0.3434094863
0.3373705978
0.3302285253
0.3264162849
0.3287345876
0.33323168
0.3356834811
0.3371483478
0.3372040517
0.3359073638
0.3275733721
0.3476374727
0.3586191475
0.3583047763
0.3524688235
0.3480980813
0.3483469335
0.3511406298
0.3531273678
0.3534168749
0.3515463498
0.3458839995
0.3370925894
0.3312144417
0.3311246654
0.3334701452
0.3341861833
0.3347632851
0.3348325075
0.3345883027
0.3274867275
0.3483570709
0.3583204914
0.3571861884
0.3518112623
0.34832373
0.3490037228
0.3524362014
0.3557665775
0.3578556763
0.3564995691
0.349739951
0.3395522042
0.3339272713
0.3345267204
0.3370777886
0.3381378765
0.3379606346
0.3373245225
0.3354838577
0.3269081838
0.3502880116
0.3580313066
0.3556607562
0.3505865062
0.3478047285
0.3486965273
0.3529871074
0.3576218897
0.3608990288
0.360214965
0.353931372
0.344689237
0.3401584385
0.3410851633
0.3426795487
0.343387722
0.3422615608
0.3399147086
0.3355638078
0.3255018438
0.3526825723
0.3577673541
0.3542024401
0.3490548353
0.345578976
0.3459121358
0.3504179864
0.3561094465
0.3608053023
0.36098541
0.3569980999
0.3518591514
0.3497088186
0.3501458372
0.3497242552
0.3481150732
0.3448958759
0.3399992759
0.3335757509
0.3231239087
0.3518482587
0.3555481621
0.3512094419
0.345746822
0.3415027355
0.3412612188
0.3463158566
0.3522912906
0.3570780289
0.3576695603
0.3552430737
0.3537172743
0.3543678112
0.3556475965
0.3545339157
0.35116269
0.3457666296
0.3383334493
0.3297810283
0.318942478
0.3458612346
0.3503167074
0.3468994574
0.3414097525
0.3365484325
0.3358939417
0.3405927423
0.3454593
0.3489797909
0.3498605267
0.3491879877
0.3502486231
0.3533171985
0.3565877245
0.3569175599
0.3530622813
0.3460355603
0.3364518249
0.3263755718
0.3148574381
0.3348104138
0.3419234105
0.3410128996
0.3368018359
0.3315855148
0.3294751015
0.3320065193
0.334598357
0.3360326531
0.3360236122
0.3364329526
0.3395747607
0.3441292402
0.3491358111
0.3521420968
0.3497138286
0.3420613135
0.3314234504
0.320374311
0.3073989511
0.3613999876
0.3763835143
0.3844019768
0.3869700265
0.3846584331
0.3808044248
0.3760642152
0.3721382063
0.3687105749
0.3656148487
0.3649306208
0.3665449329
0.3688027319
0.3708901958
0.3728316623
0.374766437
0.3762358644
0.3779596067
0.3784116061
0.3724480396
0.3653672149
0.3782703292
0.3856541959
0.3895189151
0.3890821503
0.3858575477
0.380612313
0.3767634015
0.3731914232
0.3692728067
0.3668899677
0.3665162509
0.3683832651
0.3712957222
0.3758123483
0.3806483076
0.3847222143
0.3874475528
0.3879988796
0.383343444
0.36357809
0.3742516136
0.3804735407
0.3849016925
0.386657017
0.3859715214
0.3826794578
0.3794986427
0.375868123
0.3712507099
0.3663367577
0.3629406256
0.3634321239
0.3671218828
0.3739552227
0.3813494963
0.3872302548
0.3900283907
0.3897353758
0.3855210937
0.3618109802
0.3706158675
0.3753058067
0.3800597346
0.3838952764
0.3859320939
0.3853239931
0.3827169454
0.3783434532
0.3725923709
0.3654041363
0.359901007
0.3591788779
0.3635566839
0.3719240081
0.3804072554
0.3866791798
0.3880054922
0.3860327018
0.3814015811
0.3640368286
0.3719255337
0.3756666997
0.3803689331
0.384780995
0.3878096512
0.3883745685
0.3862873277
0.3822321935
0.3766517433
0.368099302
0.361844236
0.3611415655
0.3651246631
0.3732532252
0.3810585619
0.3855645037
0.384475144
0.3805808082
0.374580432
0.3702083197
0.3776773769
0.380957888
0.3850294626
0.3885400086
0.3914914718
0.3924524443
0.3906542638
0.3871301289
0.3830160535
0.3758436501
0.3712988918
0.3717003802
0.3745160494
0.3797494597
0.3848170838
0.3863544532
0.3835591301
0.3777410774
0.369787541
0.3778078734
0.3853519544
0.3884251214
0.391327867
0.393452545
0.3953652079
0.3954758335
0.393054809
0.3894691079
0.3859115793
0.3803067278
0.3783778567
0.3805827938
0.3834093752
0.3864878631
0.3884701015
0.3875000557
0.3847224382
0.3784942265
0.368511899
0.3822852237
0.3889458509
0.3910322153
0.3925490883
0.3935429327
0.3952895875
0.3954201337
0.392509711
0.3875838069
0.3827214332
0.3771687007
0.3757325382
0.379658843
0.3844827688
0.3886183351
0.3902038333
0.3883590082
0.3859520617
0.3800263314
0.369053317
0.3851475421
0.3902019628
0.3899961759
0.3900319564
0.3904039809
0.3920582373
0.3919262478
0.3887549903
0.3821824352
0.3744523846
0.3675512304
0.3661232647
0.3722807964
0.3809778972
0.3880480868
0.3906124468
0.3894119126
0.3876029097
0.3818206219
0.3699032446
0.3882022795
0.3914835673
0.3887086979
0.3861002883
0.3852266251
0.3864621792
0.3871143812
0.3847105043
0.3778057996
0.3688615901
0.3612407944
0.3589369783
0.3650624849
0.3750758268
0.3841972017
0.3883957877
0.3889394489
0.3878304104
0.3819366492
0.3697502991
0.390476276
0.393472658
0.3884779175
0.3826468855
0.3797112681
0.3804310475
0.3825467761
0.3822923724
0.3777739235
0.3695654535
0.3612233679
0.3566990875
0.3600201449
0.3687277357
0.3771593455
0.3814561332
0.3833482511
0.3833286856
0.3786391541
0.3676794677
0.3902831705
0.3954714566
0.3912897893
0.384378281
0.3802637986
0.3802186858
0.3824926014
0.382576512
0.3792332684
0.3720601686
0.3645088788
0.3593548357
0.3593291318
0.3654592197
0.3721630182
0.3753236473
0.3769341474
0.3767484819
0.3737460059
0.3645789787
0.38890942
0.3970767737
0.3951771854
0.3892528346
0.3851646938
0.3848902549
0.3862167422
0.3855926641
0.3826805287
0.3770419985
0.3706053244
0.3642998328
0.361083252
0.3642855739
0.3694713433
0.3716863226
0.3721536742
0.3713601882
0.3700780915
0.3626855599
0.3869267059
0.3966321326
0.3962198326
0.3913933981
0.3880303912
0.387779084
0.3888829749
0.3887800646
0.3868394408
0.3830418965
0.3770331381
0.3689114282
0.3639916809
0.365461078
0.3692545093