/*--------------------------------*- C++ -*----------------------------------*\
  =========                 |
  \\      /  F ield         | OpenFOAM: The Open Source CFD Toolbox
   \\    /   O peration     | Website:  https://openfoam.org
    \\  /    A nd           | Version:  7
     \\/     M anipulation  |
\*---------------------------------------------------------------------------*/
FoamFile
{
    version     2.0;
    format      ascii;
    class       surfaceScalarField;
    location    "60";
    object      alphaRhoPhi;
}
// * * * * * * * * * * * * * * * * * * * * * * * * * * * * * * * * * * * * * //

dimensions      [1 0 -1 0 0 0 0];

internalField   nonuniform List<scalar> 
47120
(
1.732001146e-07
6.528108603e-08
8.383359736e-07
-2.194726934e-07
-1.781247845e-07
1.591136355e-07
5.178473033e-08
7.772699774e-07
-1.925981925e-07
1.148277398e-07
5.104639555e-08
7.506954895e-07
-1.964293245e-07
6.947864351e-08
4.491083238e-08
7.009189347e-07
-1.787891457e-07
2.727486212e-08
8.764343271e-09
6.427214646e-07
-1.204266701e-07
-2.000538202e-08
-2.937321811e-08
6.160498533e-07
-6.330917671e-08
-3.747518895e-08
-5.632851061e-08
5.95871238e-07
-2.904847019e-08
-5.038063499e-08
-6.401056351e-08
6.133938418e-07
-1.582836549e-08
-4.189785594e-08
-4.662040621e-08
6.431517554e-07
-2.168351447e-08
-3.694436737e-08
-1.784887953e-08
6.910640909e-07
-3.808257397e-08
-2.918369457e-08
1.283062156e-08
7.371779719e-07
-5.637716702e-08
-2.021114162e-08
3.186026661e-08
7.699506392e-07
-7.540783947e-08
-1.110210354e-08
4.492458484e-08
7.833233669e-07
-9.44732719e-08
-2.226358114e-08
4.840357912e-08
7.929443633e-07
-1.165564938e-07
-3.769931687e-08
5.390120307e-08
8.021462569e-07
-1.562704877e-07
-4.91296991e-08
4.827034725e-08
8.183293161e-07
-1.883828497e-07
-5.198095125e-08
3.968569623e-08
8.197259035e-07
-2.022103005e-07
-5.538258573e-08
3.899325378e-08
8.276616535e-07
-2.107467009e-07
-1.04074151e-07
4.998306115e-08
8.446146011e-07
-2.119194028e-07
1.051263907e-07
8.841763834e-07
-2.228250351e-07
-2.316933399e-07
1.403710265e-07
2.380180531e-08
7.990929601e-07
-2.139593876e-07
1.361700987e-07
1.475335342e-08
6.586310697e-07
1.006712609e-07
2.249151035e-08
6.215602169e-07
3.653987799e-08
-1.544579181e-09
6.161306372e-07
-1.447997604e-08
-3.37927034e-08
5.703049529e-07
-5.306022585e-08
-5.606232339e-08
5.385005625e-07
-5.421712301e-08
-7.131974587e-08
5.19198311e-07
-5.062623566e-08
-7.419459351e-08
5.310827355e-07
-2.017646796e-08
-6.18020441e-08
5.533444098e-07
-2.262885441e-09
-3.174795864e-08
6.104124167e-07
8.490061752e-11
4.699733235e-10
6.726765594e-07
-1.759303362e-09
2.239219669e-08
7.160180804e-07
-6.92736675e-09
2.858684824e-08
7.36119883e-07
-1.933902442e-08
2.259061391e-08
7.44357394e-07
-4.062672199e-08
4.666071691e-09
7.449659444e-07
-4.517268129e-08
-2.378669712e-08
7.364162882e-07
-1.589705693e-08
-5.271239307e-08
7.034195988e-07
-3.335447943e-10
-5.58440305e-08
7.103667862e-07
-4.71388548e-08
-3.724037037e-08
7.610197132e-07
3.554023143e-08
8.42799752e-07
-1.94744429e-07
1.398312023e-07
2.254281789e-08
8.010446362e-07
-2.059862247e-07
1.358872514e-07
2.351232159e-08
6.451911099e-07
7.706954751e-08
1.643801937e-08
6.506945583e-07
1.046859771e-08
8.305669207e-10
5.869344081e-07
-4.317738596e-08
-1.837622074e-08
5.353842777e-07
-7.541780934e-08
-2.777817704e-08
4.916506771e-07
-6.416789399e-08
-2.968014756e-08
4.619285563e-07
-4.455741366e-08
-2.4121873e-08
4.687041504e-07
4.350355536e-09
-1.408588351e-08
4.721145858e-07
3.29907637e-08
3.227552584e-09
5.227941364e-07
2.856876768e-08
1.673980549e-08
6.076075869e-07
7.807305251e-09
2.356554845e-08
6.743556231e-07
-1.404512576e-08
1.959994782e-08
7.100878073e-07
-4.114903574e-08
8.645190624e-09
7.232356647e-07
-6.992260774e-08
-1.496238039e-08
7.170160225e-07
-6.91715062e-08
-4.132846514e-08
6.727510362e-07
-1.088557493e-08
-6.382308592e-08
6.002866742e-07
2.30283215e-08
-6.750631043e-08
6.136339185e-07
-2.473926214e-08
-4.577225259e-08
7.009607321e-07
2.411425191e-08
8.150114883e-07
-1.855283488e-07
1.335691225e-07
2.163276805e-08
8.216258656e-07
-1.845779732e-07
1.153517086e-07
2.181510532e-08
6.991660006e-07
6.095644743e-08
1.684394031e-08
6.55944329e-07
3.811340198e-10
1.678307645e-08
5.880788376e-07
-4.403445758e-08
1.832544517e-08
5.357427654e-07
-6.972163869e-08
2.924388262e-08
4.901792698e-07
-5.441532281e-08
4.151784596e-08
4.668357958e-07
-3.155079892e-08
5.297106878e-08
4.705695584e-07
1.98470805e-08
5.689779677e-08
4.580124323e-07
4.830480834e-08
6.926255944e-08
4.877794615e-07
4.302526629e-08
6.797338967e-08
5.65088432e-07
5.404530402e-09
5.494971587e-08
6.422216177e-07
-2.876079056e-08
4.224838341e-08
6.836579967e-07
-6.773563965e-08
2.388870092e-08
7.054860798e-07
-9.623353157e-08
2.625597327e-09
6.902331766e-07
-8.658792715e-08
-2.785069218e-08
6.307145614e-07
-1.028594444e-08
-5.789577242e-08
5.485498055e-07
3.87790158e-08
-6.417263363e-08
5.725396654e-07
-8.83965697e-09
-3.192508942e-08
6.678289731e-07
3.800760849e-08
7.888585351e-07
-1.675625003e-07
1.284810122e-07
2.911357013e-08
8.290395121e-07
-1.681032419e-07
1.058938072e-07
2.887942821e-08
7.335997595e-07
6.203525713e-08
2.487908456e-08
6.775229468e-07
9.960596572e-09
3.364189319e-08
6.256760721e-07
-2.404403549e-08
5.124242346e-08
5.894845272e-07
-5.006957083e-08
7.683940994e-08
5.520530299e-07
-3.96336375e-08
1.014677177e-07
5.184645656e-07
-2.322548983e-08
1.135166622e-07
5.069143122e-07
3.184316406e-08
1.212282563e-07
4.537400028e-07
5.236433446e-08
1.135518241e-07
5.039327347e-07
3.670812595e-08
9.943651895e-08
5.627830595e-07
-4.907625218e-09
7.569089187e-08
6.217904118e-07
-5.173295447e-08
5.934482414e-08
6.589718456e-07
-1.003867756e-07
4.226122762e-08
6.823588251e-07
-1.367751382e-07
2.825761173e-08
6.60446116e-07
-1.186209428e-07
4.920119181e-09
5.886548407e-07
-1.111375131e-08
-4.135165615e-08
4.939880983e-07
7.141008836e-08
-5.186010138e-08
5.258441323e-07
2.087818749e-08
-7.471721044e-09
6.432806891e-07
4.945445138e-08
7.715122541e-07
-1.440198794e-07
1.297589522e-07
4.225809982e-08
8.318089647e-07
-1.702276371e-07
1.012321048e-07
3.20482008e-08
7.488194435e-07
6.850240362e-08
2.747759946e-08
6.947696298e-07
2.920840161e-08
3.225488138e-08
6.550880115e-07
3.553228428e-09
5.165206308e-08
6.295876736e-07
-2.291261019e-08
7.468797712e-08
6.039787795e-07
-2.652073976e-08
1.01358014e-07
5.769894828e-07
-1.62231221e-08
1.142471143e-07
5.650764479e-07
2.37217484e-08
1.219716244e-07
5.257691714e-07
3.807251825e-08
1.0438826e-07
5.699123525e-07
1.424584738e-08
8.345471939e-08
6.05709024e-07
-2.607714979e-08
6.550691208e-08
6.320588996e-07
-8.389758352e-08
5.469867576e-08
6.507299525e-07
-1.537289011e-07
6.445161692e-08
6.42819152e-07
-2.020642741e-07
8.86032277e-08
5.875383249e-07
-1.879621085e-07
1.357197836e-07
4.483967718e-07
2.319732566e-10
1.844392893e-07
1.742416278e-07
1.302040996e-07
1.296309837e-07
2.797018567e-07
5.99715448e-08
1.116191093e-07
5.477974129e-07
9.00985533e-08
7.186507576e-07
-1.063211908e-07
1.334301098e-07
3.36352297e-08
8.216303131e-07
-1.8493519e-07
1.03960221e-07
1.582799934e-08
7.330038319e-07
7.457207766e-08
7.96002467e-09
6.801917103e-07
4.909974506e-08
9.722882562e-09
6.390997808e-07
2.372573256e-08
2.156392613e-08
6.219622281e-07
3.075383677e-10
3.379803783e-08
6.067555734e-07
-1.460629038e-08
4.835862238e-08
5.980112546e-07
-1.172913002e-08
5.434748361e-08
5.922808174e-07
8.140864961e-09
5.767961433e-08
5.814368355e-07
1.591223981e-08
4.642348467e-08
6.099136284e-07
-3.364091695e-09
3.329678161e-08
6.219357239e-07
-3.706660453e-08
2.870067603e-08
6.34189097e-07
-7.597255613e-08
2.788085385e-08
6.498598742e-07
-1.343019508e-07
5.071399813e-08
6.528703097e-07
-1.639224487e-07
9.527679267e-08
6.145449619e-07
-1.512846016e-07
1.62575496e-07
5.35779134e-07
-4.978442934e-08
2.33121966e-07
4.266832512e-07
1.024671931e-07
2.49853871e-07
2.874435559e-07
4.761953338e-08
1.789702891e-07
5.509424668e-07
9.827687219e-08
7.141517994e-07
-9.745140171e-08
1.373411952e-07
2.461376163e-08
7.944298537e-07
-1.953475308e-07
1.094109005e-07
-5.775416881e-10
7.065880083e-07
8.174887426e-08
-1.552318448e-08
6.545853759e-07
6.008251465e-08
-1.463748752e-08
6.180075498e-07
3.333872341e-08
-1.010832038e-08
5.966246419e-07
1.172568726e-08
-5.439739788e-09
5.853503141e-07
-9.726413888e-09
-8.619925047e-09
5.84308734e-07
-1.046456226e-08
-2.017842161e-08
5.859553235e-07
6.377267042e-10
-3.626922184e-08
5.919369444e-07
2.703380687e-09
-3.617149051e-08
6.21334853e-07
-7.553508044e-09
-3.361490364e-08
6.335287989e-07
-3.23272714e-08
-2.998598621e-08
6.514195539e-07
-5.059229586e-08
-2.398690296e-08
6.603034682e-07
-8.827056024e-08
-4.718372608e-10
6.719954502e-07
-1.022955701e-07
4.842332207e-08
6.471362737e-07
-9.159122688e-08
1.184808092e-07
5.989034221e-07
-3.738906527e-08
1.884882191e-07
5.498218689e-07
4.899951815e-08
2.216269269e-07
4.79558197e-07
6.68112822e-09
1.621561154e-07
6.056430318e-07
6.515959215e-08
7.086349263e-07
-1.019859205e-07
1.334808128e-07
-2.07167154e-09
7.645967905e-07
-1.855061899e-07
1.078350487e-07
-3.844830099e-08
6.820613862e-07
8.937288848e-08
-6.281232672e-08
6.34614816e-07
6.766315269e-08
-6.990923289e-08
6.064304574e-07
3.837070939e-08
-6.804434032e-08
5.893925237e-07
7.352773489e-09
-6.628899319e-08
5.823851031e-07
-2.282378546e-08
-8.040029464e-08
5.85938071e-07
-2.970870118e-08
-9.928063304e-08
5.74950626e-07
-6.154792379e-09
-1.15532937e-07
5.672603527e-07
1.031205966e-09
-9.18223432e-08
6.17227905e-07
-5.376669153e-09
-7.232794385e-08
6.557061495e-07
-2.360608748e-08
-6.382164644e-08
6.812652378e-07
-2.221754639e-08
-5.619792354e-08
6.872599007e-07
-3.441969984e-08
-3.952346277e-08
6.931799265e-07
-3.49782485e-08
6.417497685e-10
6.794317193e-07
-3.288957524e-08
5.210864674e-08
6.573982277e-07
-1.380151835e-08
1.034324306e-07
6.307122787e-07
5.9809142e-09
1.22554952e-07
6.010789701e-07
-3.290137894e-08
7.83815344e-08
6.441443e-07
9.1412447e-09
7.024511294e-07
-1.194977443e-07
1.195010248e-07
-2.367911342e-08
7.33194812e-07
-1.684318496e-07
9.595277025e-08
-6.710643059e-08
6.538860854e-07
9.026631533e-08
-9.818724562e-08
6.112131295e-07
7.295840464e-08
-1.145899708e-07
5.86896572e-07
4.129695993e-08
-1.153149074e-07
5.828949676e-07
-6.465849395e-09
-1.103624211e-07
5.835174281e-07
-4.081780433e-08
-1.228692663e-07
5.801773224e-07
-4.996154494e-08
-1.477739122e-07
5.560086502e-07
-2.867701145e-09
-1.636177195e-07
5.267263105e-07
6.382880124e-09
-1.268185917e-07
6.02194794e-07
-3.729098223e-09
-1.005183379e-07
6.730209768e-07
-1.685444091e-08
-8.648449847e-08
7.127574364e-07
-4.067577098e-09
-7.509763769e-08
7.177945811e-07
6.435175866e-09
-5.963341425e-08
7.13733142e-07
1.164744975e-08
-2.819869683e-08
6.905182932e-07
7.765468997e-09
5.795745344e-09
6.694835445e-07
-4.180432818e-09
3.144714141e-08
6.501126958e-07
-1.919361592e-08
3.57481037e-08
6.249264751e-07
-7.197734771e-08
4.831245258e-09
6.425358809e-07
-3.469853636e-08
6.66401053e-07
-1.341110686e-07
1.012666847e-07
-2.974088778e-08
7.132533577e-07
-1.68809105e-07
7.657346456e-08
-8.382332704e-08
6.340353032e-07
8.242828145e-08
-1.179804467e-07
5.889383271e-07
7.565870468e-08
-1.363293809e-07
5.652317509e-07
4.647932142e-08
-1.336723392e-07
5.666517178e-07
-1.956438689e-08
-1.267635623e-07
5.783436431e-07
-6.447162582e-08
-1.267952199e-07
5.580466184e-07
-6.965119047e-08
-1.432113864e-07
5.102905814e-07
1.852078422e-09
-1.568362762e-07
4.669540471e-07
1.161692705e-08
-1.052711746e-07
5.623692657e-07
-2.238006408e-09
-7.582361677e-08
6.53722853e-07
-1.059089407e-08
-6.096238312e-08
7.082003872e-07
1.05410764e-08
-4.867852562e-08
7.305028706e-07
3.746568714e-08
-4.441939748e-08
7.410211077e-07
4.075653719e-08
-3.706786232e-08
7.221475721e-07
2.549368081e-08
-2.005721617e-08
6.745915085e-07
-7.290309385e-09
-9.908525033e-09
6.455233132e-07
-4.688348724e-08
-3.636933732e-09
6.062627561e-07
-1.024302622e-07
-9.630441816e-09
5.979378694e-07
-6.271570514e-09
6.039815189e-07
-1.575211381e-07
5.762564574e-08
-3.252226342e-08
6.806989393e-07
-1.003872295e-07
4.840911027e-08
-6.855759557e-08
6.028328369e-07
7.198129155e-08
-8.535488724e-08
5.535858446e-07
8.33650936e-08
-1.013307552e-07
5.224395606e-07
5.502793628e-08
-1.045276784e-07
5.235599228e-07
-2.135748556e-08
-1.040961905e-07
5.441421169e-07
-8.309712764e-08
-9.922796596e-08
5.221318618e-07
-8.56927814e-08
-1.051060715e-07
4.589336783e-07
1.988039085e-08
-1.144056904e-07
3.778842634e-07
2.88833903e-08
-4.560488821e-08
5.03851941e-07
3.722184405e-09
-2.030429365e-08
5.973896875e-07
-3.50285135e-09
-8.34288387e-09
6.513113492e-07
1.479365908e-08
-2.84530978e-09
6.866748294e-07
4.84935624e-08
-4.469175473e-09
7.095238584e-07
5.951524389e-08
-1.450669852e-08
7.123528983e-07
3.575191376e-08
-1.880751731e-08
6.838830523e-07
-5.632241119e-11
-2.05708582e-08
6.501129642e-07
-5.105983307e-08
-2.095607857e-08
6.173048858e-07
-1.221356307e-07
-2.083552067e-08
6.269510288e-07
2.833406079e-08
6.566062575e-07
-2.263898911e-07
3.627460032e-08
8.136870882e-10
6.365840703e-07
-7.743852212e-08
3.295998891e-08
1.118100792e-08
5.385337382e-07
6.158237395e-08
1.675601242e-08
4.930837355e-07
8.387027223e-08
9.103965956e-09
4.634420886e-07
5.669879505e-08
7.312740756e-10
4.630327003e-07
-1.981664647e-08
-1.091304314e-08
4.882811068e-07
-1.002700888e-07
-7.977275221e-09
4.730768778e-07
-1.013249919e-07
2.130787395e-08
3.654422031e-07
9.029488348e-08
8.143388407e-08
1.086300376e-07
6.533045334e-08
6.391442419e-08
4.303077516e-07
1.954296866e-08
7.622761448e-08
5.009208952e-07
3.151616039e-09
8.967951419e-08
5.264576145e-07
1.533706975e-08
8.399901243e-08
5.690130066e-07
4.74160786e-08
6.466148656e-08
6.092076279e-07
6.133706833e-08
3.45098253e-08
6.518147288e-07
3.773952528e-08
1.189473084e-08
6.591275365e-07
4.313183597e-09
6.551531786e-09
6.252613871e-07
-3.433668048e-08
1.225367251e-08
5.747553182e-07
-5.654632863e-08
1.799447626e-08
5.389548295e-07
4.802793917e-09
6.907125278e-07
-1.600501984e-07
4.520602102e-08
1.64405077e-08
6.833881616e-07
-1.069710623e-07
3.377660017e-08
4.802802624e-08
5.93101399e-07
5.235148682e-08
5.67959715e-08
5.518825461e-07
6.683202384e-08
5.067036945e-08
5.409681954e-07
3.98440232e-08
3.871749501e-08
5.506800301e-07
-1.857337992e-08
3.694037426e-08
5.524374201e-07
-7.012658016e-08
4.613201519e-08
5.083080357e-07
-4.781136652e-08
7.878574662e-08
4.140529594e-07
8.665208804e-08
1.175343544e-07
3.242867786e-07
8.867385513e-08
1.150726737e-07
4.37999348e-07
5.004789321e-08
1.217009904e-07
5.068843647e-07
1.649773539e-08
1.230681212e-07
5.522065721e-07
1.249116351e-08
1.082947695e-07
5.989653687e-07
2.504332224e-08
8.007075824e-08
6.387247403e-07
3.87195017e-08
4.980270383e-08
6.719717814e-07
3.074238297e-08
2.412887192e-08
6.779864339e-07
1.170613439e-08
1.376754116e-08
6.54573825e-07
-2.411047199e-08
3.779086658e-09
6.250517641e-07
-6.251933829e-08
-1.19567683e-08
6.099998648e-07
-5.834924067e-08
7.063333511e-07
-1.622463019e-07
6.273950329e-08
-5.915998525e-09
7.311081199e-07
-1.486843523e-07
3.87714798e-08
4.830746401e-08
6.392583118e-07
4.409431404e-08
5.600157398e-08
6.026568961e-07
5.177999864e-08
5.622282262e-08
5.957537879e-07
3.242427533e-08
4.668769646e-08
5.973795734e-07
-1.416928305e-08
5.250202042e-08
5.889458794e-07
-4.296181084e-08
7.29205821e-08
5.382369197e-07
-1.716151505e-08
1.059380837e-07
4.503920632e-07
9.757128886e-08
1.320268177e-07
3.639976802e-07
1.067809045e-07
1.256233737e-07
4.586969889e-07
6.931021126e-08
1.19271437e-07
5.213380878e-07
2.327965519e-08
1.039225925e-07
5.72490971e-07
2.384165952e-09
8.345134138e-08
6.137498435e-07
5.068944474e-09
5.703940002e-08
6.488046046e-07
1.564443927e-08
3.879753276e-08
6.656418739e-07
1.967886617e-08
2.325704846e-08
6.639827739e-07
8.952775649e-10
6.759067855e-09
6.562354298e-07
-4.091283029e-08
-1.896966355e-08
6.49943802e-07
-9.512794984e-08
-6.150108244e-08
6.506737039e-07
-1.241196451e-07
7.322690802e-07
-1.987386802e-07
9.123537679e-08
-3.676121875e-08
7.561088291e-07
-2.07421271e-07
5.076707661e-08
1.874158334e-08
6.630191007e-07
4.50327167e-08
2.617106671e-08
6.330978402e-07
4.28425902e-08
3.039807984e-08
6.306520957e-07
3.327390603e-08
3.134957078e-08
6.276942324e-07
7.378137098e-10
4.030217231e-08
6.159437348e-07
-1.602411402e-08
6.150535284e-08
5.771881376e-07
1.046433911e-09
9.363104697e-08
5.147387491e-07
9.306937113e-08
1.249540152e-07
4.287692149e-07
1.010935581e-07
1.103367423e-07
5.042966766e-07
6.302327222e-08
9.167396146e-08
5.471579428e-07
1.717571554e-08
6.693420119e-08
5.853767502e-07
-1.148896361e-08
4.566070996e-08
6.188116999e-07
-7.31715974e-09
2.961795198e-08
6.436896758e-07
1.223751004e-09
1.522567681e-08
6.536737166e-07
2.255408489e-09
4.894799195e-10
6.448297144e-07
-2.422852507e-08
-1.995316944e-08
6.496668122e-07
-7.972151146e-08
-5.415449512e-08
6.584475372e-07
-1.430918669e-07
-1.221185186e-07
6.845107191e-07
-2.030912614e-07
7.505202465e-07
-2.242562846e-07
1.063078985e-07
-7.236340734e-08
7.743871511e-07
-2.351726058e-07
5.81760679e-08
-2.399947099e-08
6.87639102e-07
5.063424591e-08
-9.796245783e-09
6.569334619e-07
4.569441504e-08
-4.087955476e-09
6.499264891e-07
4.023129098e-08
9.860685578e-10
6.483904525e-07
1.871476482e-08
1.247814593e-08
6.405570287e-07
1.133756723e-08
3.431913487e-08
6.106606505e-07
2.436893122e-08
5.415771578e-08
5.670767291e-07
7.79638695e-08
7.335796022e-08
5.095269334e-07
7.760975795e-08
5.594149568e-08
5.503553836e-07
3.930377983e-08
4.116351889e-08
5.737442788e-07
7.545058081e-10
2.884948751e-08
5.88345724e-07
-2.344916156e-08
1.780567034e-08
5.971340235e-07
-2.081516763e-08
1.285119513e-08
6.143695928e-07
-1.44001548e-08
4.399925114e-09
6.235754353e-07
-2.179067994e-08
-8.518723331e-09
6.156588784e-07
-5.825857251e-08
-2.872263518e-08
6.360844448e-07
-1.406469877e-07
-6.13146165e-08
6.653218345e-07
-2.114903838e-07
-1.291442206e-07
6.729647883e-07
-2.140845507e-07
6.536415918e-07
-2.244338505e-07
1.158030166e-07
-9.822304846e-08
7.921536384e-07
-2.419374326e-07
6.627874692e-08
-6.172516413e-08
7.112625986e-07
5.72155021e-08
-4.872704731e-08
6.827698703e-07
5.258209902e-08
-4.02419084e-08
6.758076847e-07
5.114416476e-08
-2.795936989e-08
6.713937674e-07
3.956458882e-08
-1.844761833e-08
6.572980913e-07
2.883452534e-08
-4.364191275e-09
6.312216391e-07
3.824559148e-08
4.226827831e-09
5.955502281e-07
6.082942697e-08
1.113734468e-08
5.587453467e-07
5.764389997e-08
-1.831669909e-09
5.710073465e-07
2.518460597e-08
-9.864345732e-09
5.807082888e-07
-1.02152553e-08
-1.544923334e-08
5.866422104e-07
-2.992097418e-08
-1.855102155e-08
5.805505293e-07
-3.147049593e-08
-1.95531242e-08
5.947313871e-07
-3.154128776e-08
-2.824590271e-08
6.049601896e-07
-4.300732739e-08
-3.789742374e-08
6.028375285e-07
-9.433514528e-08
-4.439839282e-08
6.356289306e-07
-2.026914095e-07
-4.308507742e-08
6.662816227e-07
-2.893323204e-07
-3.786134994e-08
6.051076717e-07
-3.002782906e-08
3.715797747e-07
-2.156309698e-07
1.114998598e-07
-1.374032671e-07
8.156190788e-07
-2.212204088e-07
7.019776621e-08
-1.08581116e-07
7.506896165e-07
6.583286441e-08
-9.303979914e-08
7.224023965e-07
6.554960956e-08
-8.215988367e-08
7.068784428e-07
6.232423078e-08
-7.043034567e-08
6.982735399e-07
5.533475192e-08
-5.702827039e-08
6.742189919e-07
4.314426539e-08
-4.981735928e-08
6.380323904e-07
4.456498005e-08
-5.498233599e-08
6.075670498e-07
4.739399974e-08
-5.913517891e-08
5.874567988e-07
4.377216973e-08
-6.047144783e-08
5.826475554e-07
1.629042011e-08
-5.633104526e-08
5.900888939e-07
-1.372902898e-08
-5.151187655e-08
5.860624544e-07
-3.376702652e-08
-5.869224053e-08
5.726976108e-07
-4.276139378e-08
-6.913055427e-08
5.889783522e-07
-4.003004416e-08
-8.000264864e-08
6.007119697e-07
-4.3181548e-08
-9.550951204e-08
6.1186522e-07
-6.474141733e-08
-1.109192093e-07
6.559634934e-07
-1.312672814e-07
-1.162290655e-07
7.128908381e-07
-2.108347882e-07
-1.030658916e-07
7.456623202e-07
-8.56161935e-08
6.962494599e-07
-2.310351364e-07
1.226807288e-07
8.565893322e-07
-2.023170146e-07
-2.002910909e-07
1.001996973e-07
8.139485595e-07
-1.997134376e-07
9.734151676e-08
7.947415472e-07
-1.926870016e-07
9.887179001e-08
7.682363266e-07
-1.744202504e-07
8.808833187e-08
7.438962356e-07
-1.534509093e-07
6.654631867e-08
7.124612759e-07
-1.292108898e-07
4.439658674e-08
6.723781544e-07
-1.166056186e-07
4.155858753e-08
6.501315114e-07
-1.248311197e-07
3.790725384e-08
6.343555722e-07
-1.261306074e-07
4.015308303e-08
6.226126563e-07
-1.133286724e-07
2.05038035e-08
6.2254601e-07
-1.016870483e-07
-1.697098503e-08
6.169403236e-07
-9.700396382e-08
-4.406631305e-08
6.023331287e-07
-1.116812445e-07
-5.296618037e-08
6.181059911e-07
-1.400025045e-07
-5.891408036e-08
6.405788891e-07
-1.712241425e-07
-7.094549269e-08
6.667244788e-07
-2.08458745e-07
-8.98331338e-08
7.187446998e-07
-2.506632458e-07
-1.334759804e-07
7.654148798e-07
-2.662337215e-07
-1.975887324e-07
8.215838652e-07
-2.574819814e-07
8.26569467e-07
-2.515621099e-07
-2.350792212e-07
3.153565531e-08
-4.986069859e-08
4.420569852e-07
1.338665085e-08
6.651132402e-08
3.161494841e-08
-1.187686734e-07
3.741811901e-07
1.358081658e-07
-7.410111825e-09
-9.99494408e-08
3.244203633e-07
1.415429896e-07
-4.219626608e-08
-9.180608928e-08
2.636696784e-07
1.175816169e-07
-6.034920055e-08
-1.316767945e-07
2.014140687e-07
1.367615427e-07
-7.546010407e-08
-1.830708019e-07
1.750169347e-07
1.526959329e-07
-4.725529482e-08
-2.160776605e-07
1.389126373e-07
1.541242005e-07
-1.621669848e-08
-2.376947581e-07
1.558626605e-07
1.589683595e-07
4.336467449e-08
-2.402183152e-07
1.885215338e-07
1.551422121e-07
6.38690987e-08
-1.993708459e-07
2.706378549e-07
1.241257013e-07
4.651771654e-08
-1.359699348e-07
3.494843493e-07
9.019357276e-08
8.064792007e-09
-7.619273226e-08
3.950165927e-07
5.590831289e-08
-6.560924969e-09
-2.952902479e-08
3.874868144e-07
2.584478112e-08
-1.536202977e-08
-1.519241802e-08
3.910513244e-07
1.73011938e-08
-2.220797703e-08
-2.878764168e-08
4.113733946e-07
3.49396088e-08
-3.803824873e-08
-8.496564233e-08
4.74643331e-07
6.373069638e-08
-6.690517379e-09
-1.528147457e-07
4.561013761e-07
9.833653148e-08
3.027676688e-08
-1.671009487e-07
4.830260027e-07
1.012537667e-07
1.54077874e-08
-1.268939678e-07
5.306840876e-07
9.182705804e-08
-4.257023381e-08
5.386003966e-07
3.732533054e-08
2.844472379e-08
-3.277363081e-08
-2.163316763e-09
3.866302853e-07
4.762442734e-08
2.134429992e-08
-3.293787139e-08
1.114626421e-07
3.229373478e-08
-4.180513248e-09
7.32510155e-08
-5.651754459e-08
-6.776062125e-08
2.06218883e-07
-1.093586252e-07
-1.071443287e-07
1.315990598e-07
-1.321304177e-07
-1.560101779e-07
5.971313512e-08
-9.908654382e-08
-1.927887995e-07
-1.250246698e-08
-4.441703814e-08
-2.097700791e-07
-3.115982721e-08
6.671936623e-08
-2.226482518e-07
-3.035736728e-08
1.283014856e-07
-1.959366902e-07
8.061876873e-08
1.190461079e-07
-1.372276275e-07
2.24173834e-07
6.551304472e-08
-8.223468764e-08
3.311234522e-07
1.059374098e-08
-4.565050817e-08
3.743550945e-07
-4.133816116e-08
-4.026977479e-08
3.954458646e-07
-8.581150575e-08
-7.65881292e-08
4.139353972e-07
-8.621172571e-08
-1.675095272e-07
3.974127477e-07
2.728507882e-08
-2.651991525e-07
2.73137374e-07
1.253388196e-07
-2.799008588e-07
3.149710352e-07
1.16021302e-07
-2.22323986e-07
4.605303349e-07
-1.099615576e-07
5.276600199e-07
1.137504542e-07
-7.710386256e-09
6.652856015e-08
3.649537273e-07
3.166584231e-08
6.660727816e-08
1.086895574e-07
3.577936573e-08
-1.936118799e-08
5.286240543e-08
2.447364698e-07
-1.04040173e-07
1.292582712e-08
1.331342586e-07
-1.670905287e-07
-1.469955922e-08
3.54639578e-08
-1.858773226e-07
-3.649304139e-08
-9.606286227e-08
-1.334287103e-07
-4.71532962e-08
-2.227482355e-07
-7.076950322e-08
-5.579497242e-08
-2.353792928e-07
8.470047702e-08
-7.579063312e-08
-2.792969976e-07
1.93452656e-07
-7.175401441e-08
-1.733684593e-07
1.87074557e-07
-6.327151587e-08
5.217591664e-08
1.132859287e-07
-4.941959886e-08
2.35809753e-07
1.490858071e-08
-4.934623222e-08
3.362781351e-07
-9.078309996e-08
-5.973833846e-08
3.830713042e-07
-1.812752944e-07
-1.094061841e-07
3.76382846e-07
-1.769975249e-07
-1.882032338e-07
2.443955374e-07
2.337806779e-08
-2.657536022e-07
-2.899492018e-08
1.872433146e-07
-2.82112452e-07
3.124237621e-08
1.70380372e-07
-2.288124701e-07
3.104000386e-07
-1.185133791e-07
4.622901735e-07
1.275935399e-07
-7.968816583e-09
4.667940422e-08
4.639492022e-07
3.183172337e-08
1.788137628e-08
9.343142059e-08
2.906244445e-07
-5.27755667e-08
7.564897773e-08
2.583719308e-07
-1.183958565e-07
8.683705173e-08
1.238514514e-07
-1.721901756e-07
1.007383295e-07
-8.004756693e-09
-1.829403609e-07
1.153887071e-07
-1.741323956e-07
-1.34182121e-07
1.233235561e-07
-2.641791862e-07
-8.361520072e-08
1.252765935e-07
-2.580119019e-07
8.066812978e-08
9.199034895e-08
-3.536867051e-07
2.057255397e-07
1.221761175e-07
-3.187729073e-07
2.087873221e-07
8.26493989e-08
-7.871416923e-08
1.165152881e-07
2.599528324e-08
1.591490252e-07
-3.256679734e-09
-1.880734159e-08
2.838533829e-07
-1.500001926e-07
-5.842907462e-08
3.629706478e-07
-2.564519387e-07
-1.088481431e-07
3.225579361e-07
-2.354474037e-07
-1.785634056e-07
1.335550112e-07
3.299224119e-08
-2.4617546e-07
-1.891121505e-07
2.386709585e-07
-2.96100307e-07
-7.019453985e-08
2.171968042e-07
-2.143041569e-07
2.443514321e-07
-9.664586256e-08
4.275810653e-07
1.508209468e-07
6.50480649e-09
1.646862031e-08
4.79422915e-07
1.780815326e-08
1.064329876e-08
5.301460249e-08
3.638057972e-07
-3.255452607e-08
6.465359268e-08
2.89163207e-07
-8.441586472e-08
9.462511559e-08
2.059843635e-07
-1.359990681e-07
1.316140395e-07
1.248925758e-07
-1.623307774e-07
1.746869743e-07
1.007485848e-08
-1.291243411e-07
2.149574782e-07
-1.226349087e-07
-1.062114289e-07
2.41574574e-07
-1.675650971e-07
1.052370266e-07
2.862708275e-07
-4.846801515e-07
1.770166695e-07
2.551451523e-07
-2.458669994e-07
1.622991258e-07
1.913796274e-07
-5.052370235e-08
7.205347263e-08
1.074959591e-07
1.329602453e-07
-5.773158514e-08
4.628890011e-08
2.307474498e-07
-2.247533067e-07
-8.407128432e-09
3.129413624e-07
-3.456117221e-07
-5.292075119e-08
2.476658227e-07
-3.124564696e-07
-1.248231039e-07
3.260885076e-08
4.088104579e-08
-2.781121592e-07
-2.925288335e-07
3.364513416e-07
-4.256689758e-07
-9.909278153e-08
2.923349665e-07
-2.037944146e-07
2.26484667e-07
-6.427957312e-08
4.181656878e-07
1.92412385e-07
3.632195787e-08
-1.615599101e-08
4.70481555e-07
-1.181039343e-08
2.275557774e-08
-1.442787381e-08
3.944468465e-07
-3.990117865e-09
-4.093973492e-09
3.174029211e-07
-4.235826529e-08
1.726544851e-08
2.629242135e-07
-8.643393098e-08
5.788643072e-08
2.252993347e-07
-1.160841233e-07
1.091232207e-07
1.632625993e-07
-1.00361929e-07
1.688772828e-07
7.904587494e-08
-7.059191347e-08
2.027480363e-07
2.59732907e-08
7.385715327e-08
2.509466143e-07
-1.564102019e-07
1.156320734e-07
2.123157832e-07
-5.147753735e-09
7.909337593e-08
1.530760321e-07
1.159637793e-07
-1.044739337e-08
1.03505505e-07
1.869068492e-07
-1.715787237e-07
7.75888136e-08
2.397724392e-07
-3.707960409e-07
9.832855543e-08
2.166511026e-07
-5.326382607e-07
1.614606924e-07
1.29937465e-08
-5.620199276e-07
2.851313712e-07
-4.456178062e-07
2.695292593e-08
4.341131486e-07
-1.711745283e-06
5.948188716e-07
1.814251092e-07
-1.375331239e-06
4.10104861e-07
1.114578596e-07
-3.8535689e-08
8.407913121e-08
2.984930025e-07
2.51172257e-07
5.460414795e-08
-5.026227624e-08
4.389608671e-07
-3.565370778e-08
3.756134731e-08
-6.84938215e-08
3.531748659e-07
1.693530356e-08
-6.877353107e-08
2.699237696e-07
-2.403399365e-09
-4.929538241e-08
2.034074517e-07
-3.983969414e-08
-2.356476351e-08
1.931149021e-07
-6.274946739e-08
1.406786985e-08
1.759642954e-07
-6.784824852e-08
5.178010273e-08
1.615529899e-07
-3.80129141e-08
6.973248802e-08
1.401994331e-07
4.133074008e-08
9.242343139e-08
8.555158635e-08
5.431260396e-08
8.491179451e-08
1.478789339e-07
2.91871799e-08
7.271200344e-08
1.796065039e-07
-3.314589218e-08
7.198348665e-08
1.941054535e-07
-1.453755883e-07
7.026543912e-08
2.387173974e-07
-3.024626187e-07
1.261869546e-07
2.569456137e-07
-4.192328127e-07
2.292002212e-07
1.388753603e-07
-4.092003687e-07
3.857076602e-07
-1.093162044e-07
-1.846437034e-07
5.500200363e-07
-4.301852816e-07
4.652351359e-07
6.895799046e-07
-1.368882695e-06
3.515479424e-07
3.705975755e-07
-6.798619137e-08
1.685561479e-07
2.920658653e-07
2.315847722e-07
8.81993432e-08
-7.005022313e-08
3.99198964e-07
-7.486913673e-08
5.515550869e-08
-9.924278859e-08
3.172170637e-07
4.215405629e-08
-1.122667288e-07
2.224963837e-07
1.916113225e-08
-1.005081285e-07
1.67304207e-07
-1.274743507e-08
-7.977142322e-08
1.412540914e-07
-3.373580407e-08
-6.174248834e-08
1.336948911e-07
-4.890822254e-08
-6.00861802e-08
1.4087104e-07
-2.264605819e-08
-9.051032287e-08
1.396695035e-07
3.6391008e-08
-1.209332077e-07
1.348224638e-07
4.165247138e-08
-8.118435991e-08
1.76070575e-07
2.855612867e-08
-2.9287291e-08
1.857962622e-07
-2.381822673e-08
2.82025845e-09
2.179723978e-07
-8.43068674e-08
2.255737001e-08
2.320039385e-07
-1.967230828e-07
7.317033454e-08
2.847028028e-07
-2.673723128e-07
1.780429929e-07
2.447580885e-07
-2.571445067e-07
3.311852654e-07
1.235139657e-07
-1.038806285e-07
4.766660988e-07
-2.603661707e-08
2.318393029e-07
5.520841929e-07
-2.127047181e-07
2.258180798e-07
3.300913665e-07
1.831681942e-07
1.161963192e-07
3.58304997e-07
1.79489023e-07
1.04865541e-07
-1.067753668e-07
3.825061275e-07
-1.143808792e-07
6.628086853e-08
-1.504734096e-07
2.893074142e-07
6.511717455e-08
-1.811964718e-07
1.98324676e-07
4.184208868e-08
-1.898309899e-07
1.598449662e-07
2.079862993e-09
-1.688226514e-07
1.498501683e-07
-3.697125243e-08
-1.557052421e-07
1.458951818e-07
-8.369802192e-08
-1.847404561e-07
1.559706532e-07
-5.595259701e-08
-2.353687995e-07
1.104327922e-07
5.36420198e-08
-2.842211896e-07
5.616035458e-08
8.432926854e-08
-2.075847536e-07
1.464508259e-07
5.668593091e-08
-1.23485039e-07
2.237513357e-07
1.706982565e-10
-6.719690453e-08
2.743825636e-07
-3.070106514e-08
-3.472839003e-08
2.587069793e-07
-8.873366793e-08
2.106955567e-09
2.797605949e-07
-1.228790583e-07
7.07824418e-08
2.917542753e-07
-1.26436274e-07
1.69806002e-07
2.827228955e-07
-5.014353591e-08
2.692083154e-07
2.386312906e-07
8.663887793e-08
3.034757809e-07