/*--------------------------------*- C++ -*----------------------------------*\
  =========                 |
  \\      /  F ield         | OpenFOAM: The Open Source CFD Toolbox
   \\    /   O peration     | Website:  https://openfoam.org
    \\  /    A nd           | Version:  7
     \\/     M anipulation  |
\*---------------------------------------------------------------------------*/
FoamFile
{
    version     2.0;
    format      ascii;
    class       volScalarField::Internal;
    location    "60";
    object      coalCloud:hsTrans;
}
// * * * * * * * * * * * * * * * * * * * * * * * * * * * * * * * * * * * * * //

dimensions      [1 2 -2 0 0 0 0];

value           nonuniform List<scalar> 
16320
(
-0.004293085341
-0.004625006586
-0.004244660477
-0.004158741392
-0.003654867905
-0.003842076252
-0.004319953082
-0.004598462689
-0.005156688794
-0.005373472889
-0.005603881352
-0.005543272724
-0.005352774855
-0.004731827381
-0.004107580609
-0.00393759111
-0.00413661486
-0.004404928882
-0.004023683853
-0.003869509379
-0.004306215041
-0.004389288186
-0.004143211555
-0.003982936536
-0.003622215692
-0.0036982756
-0.004386228133
-0.004182094986
-0.004341957159
-0.004977995726
-0.005110460242
-0.00535352643
-0.005132113337
-0.005044992239
-0.004581492861
-0.004791374475
-0.00473273881
-0.004450250479
-0.004485406845
-0.004282594707
-0.004840490657
-0.00439581712
-0.004348250884
-0.003896974024
-0.004081316886
-0.003927450616
-0.004320630123
-0.004149880297
-0.003938456441
-0.004117263325
-0.00464544593
-0.004816856521
-0.005066437634
-0.005011292169
-0.004980723204
-0.004841660259
-0.004851196252
-0.004581905556
-0.004958064462
-0.004866267603
-0.0050813856
-0.00451304758
-0.004205303014
-0.003697995621
-0.00418134938
-0.004647174502
-0.005341214641
-0.004831877402
-0.004659123421
-0.00439921859
-0.004890292983
-0.005018378112
-0.005517113535
-0.005604285255
-0.005558091821
-0.005040419803
-0.004498756853
-0.004603602621
-0.004704188549
-0.004719463587
-0.005140617207
-0.005109032425
-0.004568300975
-0.004269008212
-0.005004275173
-0.004951638176
-0.005529302833
-0.005269618149
-0.004816880479
-0.004792902599
-0.004484083061
-0.004449693217
-0.004795610752
-0.005197487439
-0.005033056556
-0.004949187675
-0.004485557813
-0.004804006489
-0.004683456584
-0.004246434173
-0.005404540343
-0.005453397954
-0.005388210395
-0.005142987832
-0.005543455696
-0.004985772836
-0.004926610897
-0.005340784626
-0.005281950633
-0.005690137878
-0.005026950298
-0.005004366792
-0.004903235376
-0.004552776313
-0.004708429307
-0.004558529151
-0.004546084944
-0.004491433907
-0.004565791426
-0.003945432504
-0.004882031874
-0.004905775127
-0.004901866133
-0.004854844671
-0.004982451922
-0.00457147019
-0.004441673758
-0.004608527272
-0.004792686823
-0.005437724436
-0.004486062293
-0.0044112611
-0.004828297632
-0.004493490644
-0.004890585181
-0.004730501573
-0.004821110204
-0.004423801368
-0.004276219292
-0.004136035124
-0.004593160504
-0.004830237783
-0.004575093624
-0.00505424862
-0.004972204715
-0.004832834555
-0.004557740253
-0.004856642388
-0.004871121019
-0.005262390818
-0.004571028046
-0.004373957498
-0.004556544283
-0.004582044601
-0.00451492221
-0.00427013009
-0.004282050392
-0.004128498972
-0.004165766145
-0.003926859593
-0.004516960438
-0.004530743452
-0.004407633966
-0.004910819169
-0.005186475455
-0.004628659382
-0.004708605942
-0.004315681993
-0.004286059335
-0.005309606426
-0.00542433857
-0.004878352479
-0.005138609483
-0.005166777304
-0.005246427818
-0.005081982389
-0.004967674279
-0.00450534138
-0.003792596175
-0.003855810664
-0.004923998217
-0.004556957169
-0.004625559347
-0.004454634039
-0.00462438607
-0.00463670034
-0.005345414816
-0.0046122688
-0.004214939331
-0.00480842958
-0.00553318216
-0.005358515762
-0.005210273053
-0.00526701668
-0.005094847338
-0.00509138135
-0.004708859652
-0.004475434316
-0.003674194452
-0.003923699047
-0.00521342177
-0.004714836468
-0.004686501492
-0.004616899745
-0.00493312796
-0.005104273258
-0.005493553381
-0.004866326473
-0.005006407691
-0.005386710794
-0.005951313306
-0.006075814385
-0.00637621071
-0.006852101943
-0.005889799082
-0.004775908608
-0.004422448688
-0.003843507734
-0.003780311395
-0.004437437514
-0.004987244259
-0.004690711548
-0.005257523143
-0.004576092689
-0.00416291914
-0.004477298631
-0.004733182407
-0.004895665893
-0.004826338089
-0.005139399555
-0.00514644703
-0.005501235164
-0.00564339615
-0.006442930564
-0.006202497829
-0.004988380403
-0.004685395285
-0.004003092288
-0.004627573065
-0.005347330823
-0.00465055482
-0.004609522273
-0.005619201546
-0.0050805762
-0.004154411206
-0.004292997957
-0.004680488246
-0.0051286936
-0.004889015259
-0.004414544331
-0.004526125964
-0.004418226644
-0.004847291667
-0.005144167606
-0.005744703612
-0.005313928295
-0.004713589691
-0.004225572649
-0.004691290817
-0.004710586715
-0.004696596007
-0.004391810715
-0.004665841917
-0.004670210765
-0.004576143483
-0.00488098763
-0.004460056073
-0.004296440316
-0.004652743826
-0.004246615
-0.004463407861
-0.004193369061
-0.004773993733
-0.004863273934
-0.005719299265
-0.005800065159
-0.005432467319
-0.004709385233
-0.003883084
-0.003585085067
-0.004486855381
-0.004621315771
-0.004734672853
-0.005048755474
-0.004776180192
-0.004867586731
-0.004725076903
-0.004117522677
-0.004338657111
-0.004316996826
-0.003947878981
-0.004009051713
-0.004392192994
-0.004906572598
-0.005176039559
-0.005391846955
-0.005032215534
-0.004677780781
-0.003613495241
-0.003580981803
-0.003912210984
-0.003955833147
-0.004295895089
-0.004782377015
-0.00489749713
-0.004533538326
-0.004545489885
-0.004611238361
-0.005120417456
-0.004927686811
-0.00407566184
-0.004125172057
-0.004570078848
-0.005336485646
-0.005213529439
-0.004635074253
-0.004558033163
-0.003987859085
-0.003676851586
-0.003918740696
-0.003838732845
-0.004023700183
-0.004455917541
-0.004443457828
-0.004643366788
-0.004778513493
-0.005076939654
-0.00476086591
-0.004781870292
-0.004644059033
-0.004527076114
-0.004793321536
-0.004397129183
-0.005005505934
-0.005259979934
-0.004423461636
-0.004620844172
-0.004017165666
-0.004341668172
-0.004429244436
-0.004092532061
-0.004044149004
-0.004404967847
-0.004717454092
-0.005152850885
-0.004964855691
-0.004959469834
-0.004914665743
-0.004582747292
-0.004758722925
-0.004598737485
-0.004833614652
-0.004403706533
-0.005245614704
-0.005185894476
-0.00424409664
-0.004452768489
-0.004057258872
-0.00459262242
-0.00413408362
-0.004073110732
-0.004378518033
-0.004886352122
-0.00489073216
-0.005112629624
-0.005114506811
-0.004360723666
-0.004291624207
-0.004304904821
-0.004577516824
-0.004740948744
-0.004891350647
-0.004148789528
-0.004691889303
-0.004791543911
-0.004075205814
-0.004427035501
-0.004012769917
-0.004463378473
-0.004078201538
-0.004496848334
-0.00452159643
-0.004766857905
-0.004823825814
-0.004536654024
-0.004662896833
-0.004106656187
-0.004357649466
-0.004282911261
-0.004929035826
-0.00468000547
-0.004241045981
-0.003523021644
-0.003830051623
-0.003890702573
-0.003610098757
-0.003998861987
-0.003726426965
-0.004148491883
-0.003823883657
-0.003509536274
-0.003708904578
-0.003616936577
-0.003403155597
-0.003157451894
-0.003608015293
-0.003670672618
-0.004051800607
-0.004086056183
-0.004472541177
-0.004557325188
-0.004597830471
-0.004238157111
-0.004019889105
-0.003464850927
-0.003385250302
-0.003653707049
-0.00358048606
-0.003343415233
-0.003066611252
-0.00361935463
-0.003862173554
-0.003635759063
-0.003557381183
-0.003027970413
-0.003093744495
-0.003400382639
-0.003520036577
-0.003350163526
-0.003725414107
-0.003975815217
-0.004141496767
-0.004051384861
-0.003982330114
-0.00372755406
-0.003813409286
-0.004096125486
-0.003812794034
-0.003993282547
-0.003777651129
-0.003810941028
-0.003599395041
-0.003519293512
-0.003150823449
-0.00303754048
-0.003155648651
-0.003424920555
-0.00371009795
-0.003197512739
-0.003314049301
-0.004029055737
-0.004205692506
-0.004527336313
-0.004407091894
-0.00440413387
-0.003977671285
-0.003786037766
-0.003712946063
-0.004015879066
-0.004139433564
-0.004353110779
-0.003814327449
-0.00372068965
-0.003100880519
-0.00326131308
-0.003903207435
-0.003992357475
-0.003937929858
-0.003534502811
-0.003482796172
-0.003919622381
-0.004366724344
-0.004585054165
-0.004802663483
-0.004549595232
-0.004248279344
-0.003712391452
-0.003954491541
-0.003877325342
-0.003762382302
-0.004291746388
-0.004095792193
-0.003776309443
-0.003508833787
-0.003730905567
-0.003968051593
-0.004163215112
-0.004453895626
-0.004114471341
-0.004202450834
-0.003810675283
-0.003685786446
-0.003897044129
-0.004066780816
-0.00397363546
-0.003828947484
-0.003589145659
-0.003821781609
-0.003942567443
-0.003579697017
-0.004446938614
-0.00470818051
-0.004554236194
-0.004544964645
-0.00453927997
-0.004408312636
-0.004075028842
-0.004277321642
-0.00457051858
-0.00459461198
-0.004331701524
-0.004020684057
-0.004215716534
-0.003863153826
-0.004140151761
-0.0039559871
-0.003962620564
-0.003680445631
-0.003561676092
-0.003299005203
-0.004352225967
-0.004340179728
-0.004456571101
-0.004310247622
-0.004443696924
-0.004062551543
-0.004065346154
-0.003837431629
-0.004114487326
-0.004281264128
-0.003723942481
-0.003631871594
-0.003829497146
-0.003745277223
-0.003971897897
-0.004166017142
-0.003961603091
-0.003839480474
-0.00348756595
-0.003656052848
-0.003772835908
-0.003929931523
-0.003799116643
-0.00401826828
-0.003887269754
-0.003723632339
-0.003858780552
-0.003977482962
-0.004502825068
-0.004664428072
-0.00396280014
-0.004052185051
-0.003932799226
-0.004287257552
-0.003790314825
-0.003646401197
-0.003378623959
-0.003402311823
-0.003200529294
-0.003329669029
-0.00379679432
-0.004030831367
-0.003743612285
-0.004221783273
-0.003967809226
-0.003705228183
-0.004166394126
-0.003758750199
-0.003636359195
-0.004144265094
-0.004294335996
-0.004222862403
-0.004170575319
-0.004641773158
-0.004253927157
-0.004252218026
-0.003871342096
-0.003842759306
-0.003203908753
-0.003377901809
-0.003934019261
-0.003876389101
-0.003650318997
-0.003832193313
-0.00382840568
-0.003886737709
-0.004265318615
-0.004072981721
-0.003489922377
-0.004032108638
-0.004951943745
-0.005028632085
-0.004310489355
-0.004423535341
-0.004148733882
-0.003954432533
-0.003700400234
-0.003515208254
-0.003206264497
-0.003637088031
-0.00449411221
-0.004264462122
-0.003849226338
-0.004067009697
-0.004103738782
-0.004621348643
-0.004353383976
-0.004017138458
-0.003839776905
-0.004435634484
-0.004840683834
-0.005218373661
-0.004926421416
-0.00548197934
-0.005040544411
-0.004035867745
-0.003852662028
-0.003259373931
-0.003395322533
-0.003749653114
-0.004025323995
-0.003792540068
-0.003900388468
-0.003581138678
-0.003539595805
-0.004327759118
-0.004267983705
-0.004371571712
-0.003902528314
-0.003895725261
-0.003992991765
-0.004178957371
-0.004279789149
-0.004770698567
-0.004876324415
-0.004153257622
-0.003724308084
-0.003354637655
-0.004120091873
-0.004460017494
-0.00400589583
-0.003722162257
-0.004306365198
-0.003738334166
-0.003453205251
-0.003830790143
-0.004262827681
-0.004211070381
-0.004129729284
-0.003628041034
-0.003884384468
-0.003647717667
-0.00413710493
-0.004253161167
-0.005087565776
-0.004966702706
-0.003920154009
-0.00352581779
-0.003876353982
-0.004229502086
-0.003830099172
-0.003432932233
-0.003740983906
-0.003674753707
-0.003985543519
-0.00397093485
-0.003553035074
-0.003246496201
-0.003414488367
-0.003306215248
-0.003447979398
-0.003414239755
-0.003781917396
-0.003972817936
-0.004675644807
-0.005085300455
-0.004404669848
-0.004107608683
-0.003311650195
-0.003172864785
-0.003928703585
-0.003700024855
-0.004034572973
-0.004035243144
-0.003973614244
-0.004171186346
-0.003599414309
-0.003211168578
-0.003318046008
-0.003654091955
-0.003430862216
-0.003839462167
-0.004033514532
-0.004442792575
-0.004368446573
-0.004326256426
-0.004095983849
-0.003849349549
-0.003090492162
-0.00311932549
-0.003330766193
-0.003345311221
-0.003655748609
-0.004135112588
-0.003908942217
-0.003845233355
-0.003672134264
-0.003916122621
-0.003885726326
-0.003727653912
-0.003474044752
-0.00376349577
-0.004295869181
-0.004551335673
-0.004582159357
-0.003965521016
-0.004081431214
-0.003506125801
-0.003349096323
-0.003573970995
-0.003284627165
-0.003575458022
-0.003607163264
-0.003812839355
-0.003866589265
-0.004233181082
-0.004119300891
-0.003947994508
-0.004110864947
-0.003829892322
-0.004102033177
-0.00406541391
-0.003778969775
-0.004063499206
-0.004243812433
-0.003612786276
-0.003828747942
-0.003472513052
-0.003858325411
-0.003632390042
-0.003173088772
-0.003435641388
-0.003658214134
-0.00418297577
-0.004266076639
-0.004212915568
-0.004255805289
-0.003876624277
-0.003792087014
-0.003754751328
-0.004112319036
-0.004378651399
-0.003783549239
-0.004255534737
-0.004427638121
-0.003659579983
-0.003933241291
-0.003489088588
-0.003831262328
-0.003442122465
-0.003287739074
-0.003790204761
-0.004009328763
-0.004159970026
-0.004491484075
-0.004216927031
-0.003605422818
-0.003462043448
-0.003830582898
-0.003858050541
-0.004292587794
-0.004221666587
-0.003606721668
-0.004119127259
-0.003908298994
-0.00332838996
-0.003640635289
-0.003458693426
-0.004037674988
-0.003770971805
-0.003509913512
-0.003718647546
-0.004079063198
-0.003937707018
-0.00393133034
-0.004065202995
-0.003357414148
-0.003224853969
-0.003373758284
-0.003806101986
-0.003896986316
-0.003849153251
-0.003103332537
-0.003270920812
-0.003308184089
-0.003123959915
-0.0034894657
-0.003147433234
-0.003461236618
-0.003376025933
-0.001827648822
-0.002080714535
-0.002316605287
-0.002138201641
-0.002081213166
-0.002277126065
-0.002192665434
-0.002304284086
-0.002296844479
-0.002433320477
-0.002485173516
-0.002495334082
-0.002330481982
-0.002292939136
-0.002187312722
-0.002334963199
-0.002337863085
-0.002305670481
-0.002063276337
-0.001878789424
-0.001891645092
-0.002141460269
-0.002216878272
-0.002123103453
-0.001876444914
-0.001895520202
-0.002020992686
-0.002009823422
-0.00181884003
-0.001931201289
-0.002111845903
-0.002246424087
-0.002256974515
-0.00226610094
-0.002169293826
-0.002184504929
-0.002209850421
-0.002154011281
-0.002232002536
-0.002175809867
-0.001927772507
-0.001974849985
-0.002061704231
-0.001866199485
-0.001764886017
-0.001807808348
-0.001938499583
-0.002102519257
-0.001782446087
-0.001747598514
-0.002075750055
-0.002276579229
-0.002502730658
-0.002499833694
-0.0023914254
-0.002038269595
-0.001769192425
-0.001854235984
-0.002065457439
-0.0022222425
-0.002212389231
-0.002057354412
-0.002097382789
-0.00181478619
-0.001816116287
-0.002070080238
-0.002105185159
-0.002215569658
-0.001858916179
-0.001752788859
-0.00189671933
-0.002250589026
-0.002465645435
-0.00260523014
-0.002368161119
-0.002089616624
-0.001781429343
-0.001940666737
-0.001989457853
-0.002021639136
-0.002261110542
-0.002201690106
-0.002138508634
-0.002034239674
-0.002028258526
-0.002077340852
-0.002099634809
-0.002310167104
-0.002097378352
-0.002122510385
-0.001946574338
-0.001958271859
-0.002149089359
-0.002244673452
-0.002064015692
-0.001826674648
-0.001711136875
-0.00181120588
-0.001971638129
-0.0019311288
-0.002373840465
-0.002557837727
-0.002549301695
-0.002571379058
-0.002532820618
-0.00238959351
-0.002128693807
-0.002233162734
-0.002384934077
-0.002377479064
-0.002298789383
-0.002165261553
-0.002318171132
-0.002156902204
-0.002162635082
-0.001989956317
-0.001897408699
-0.00168184168
-0.001724279478
-0.001760141807
-0.002357489982
-0.002447849086
-0.00252915362
-0.002488955893
-0.002546544441
-0.002371849561
-0.002328898445
-0.0022220896
-0.002336882131
-0.002341610489
-0.002158574404
-0.002111828453
-0.002205633369
-0.002104595003
-0.00206308686
-0.002102167151
-0.00189478678
-0.001798805848
-0.001741399586
-0.001952709504
-0.002061869301
-0.002237640959
-0.002212392195
-0.002317440291
-0.002292009745
-0.002253316922
-0.002330735197
-0.002402738493
-0.002586127688
-0.002599991095
-0.002304841247
-0.002382771204
-0.002315365507
-0.00243008133
-0.002098779803
-0.001925116673
-0.001631585354
-0.001630212428
-0.001711852088
-0.002043124673
-0.002087082315
-0.002280366705
-0.002193799057
-0.00244874233
-0.002406267644
-0.002250561099
-0.002423222263
-0.002218430918
-0.002091934498
-0.002307470446
-0.002413010982
-0.002517826121
-0.002437521908
-0.002627184592
-0.002397187321
-0.002291344894
-0.002034142249
-0.002041561684
-0.001995749791
-0.002372962084
-0.002091764675
-0.00216884645
-0.002104498354
-0.002359551703
-0.002625080002
-0.002423302197
-0.002411415019
-0.002232417726
-0.001878182576
-0.002189862105
-0.002688063001
-0.002830772163
-0.002444404737
-0.002471587005
-0.002336814189
-0.002221298278
-0.002160255508
-0.002051776317
-0.002112297656
-0.002361735788
-0.002363283746
-0.002292222733
-0.002072190533
-0.002261460931
-0.002425262374
-0.002612179295
-0.002336501432
-0.002099513567
-0.001901304031
-0.00225064393
-0.002528734665
-0.002774986725
-0.002597037097
-0.002826012255
-0.002708135776
-0.002326912025
-0.002284919173
-0.002025101106
-0.002258521905
-0.002244579168
-0.002162533882
-0.001984566569
-0.001906705575
-0.001851132325
-0.001974312841
-0.00239670503
-0.002286497221
-0.002208980262
-0.001865975599
-0.001903928875
-0.002030953801
-0.00211118942
-0.002205341326
-0.002424935843
-0.002565167318
-0.002357466825
-0.002182928332
-0.001959513215
-0.002347053846
-0.00238083542
-0.002159723563
-0.001902396818
-0.002053335256
-0.001837571783
-0.00186374909
-0.00211270023
-0.002240418452
-0.002084364798
-0.001965290953
-0.0018009535
-0.001934121094
-0.001796950649
-0.00210222753
-0.002223766113
-0.002689524203
-0.002715214261
-0.002198286109
-0.001931690906
-0.002101892872
-0.002275670666
-0.002037359193
-0.00172664115
-0.001867668189
-0.001862681399
-0.002122384833
-0.002137388568
-0.001868772113
-0.001594440048
-0.001548775465
-0.001619831706
-0.001745602781
-0.001784552888
-0.001978927019
-0.002093596665
-0.00247255728
-0.002732608601
-0.002459929822
-0.002372849076
-0.001958111115
-0.001878066052
-0.002136681525
-0.001920147937
-0.002084393137
-0.002119361035
-0.002197688396
-0.002270405726
-0.001887630901
-0.00161490833
-0.001562810727
-0.001835549307
-0.001898120476
-0.002206222758
-0.002336700564
-0.00247609277
-0.002440366771
-0.002433144191
-0.002488497841
-0.00256260583
-0.002036089489
-0.001937073328
-0.001928017627
-0.001866506606
-0.001998214098
-0.002258992333
-0.002204312604
-0.002198726138
-0.002010725087
-0.001988804004
-0.001806579908
-0.001865580783
-0.001987864662
-0.002299719957
-0.002575944153
-0.002668164053
-0.002640138864
-0.002332067698
-0.002440658801
-0.002297800255
-0.002098497322
-0.002026705951
-0.001867679087
-0.001984322819
-0.00200096206
-0.002189515682
-0.002278087327
-0.002434711427
-0.002300447736
-0.002163723708
-0.002146331098
-0.002080716441
-0.002341675645
-0.002399526877
-0.002372857056
-0.002560735559
-0.002486275857
-0.002156653142
-0.002253673551
-0.002173596687
-0.002166094122
-0.001837601604
-0.001768064904
-0.00194345463
-0.002089110197
-0.002393764003
-0.002460821754
-0.002456027513
-0.002418601099
-0.002214642293
-0.002136776777
-0.002124157364
-0.002438226673
-0.002574131494
-0.002351580224
-0.002500805999
-0.002487762819
-0.002139585491
-0.002258756632
-0.002104280946
-0.002075107121
-0.001693457553
-0.001855951992
-0.002112264183
-0.00225167732
-0.002430906666
-0.002624969394
-0.002462663443
-0.00214655993
-0.002075350177
-0.002216445005
-0.002220179633
-0.002469619874
-0.002436447444
-0.002172242547
-0.002364682128
-0.002199507166
-0.00194853858
-0.00210308487
-0.002117000026
-0.002206478494
-0.001839818497
-0.001890349079
-0.002042529327
-0.002256382872
-0.002292863483
-0.002438563946
-0.002424947612
-0.002050973682
-0.001983483108
-0.001995034621
-0.002147702704
-0.002221907288
-0.002210683291
-0.001897860299
-0.002000576228
-0.001946149615
-0.001823017386
-0.001965334454
-0.00190789212
-0.002000544589
-0.001801429875
-0.0006299493259
-0.0008425556644
-0.001098384918
-0.001150972358
-0.001268425702
-0.00117806682
-0.001009097196
-0.0009850573443
-0.0009741452395
-0.001058177751
-0.001179556741
-0.001212958698
-0.001209112368
-0.001222811842
-0.001228230225
-0.001185297933
-0.001042757653
-0.001028229547
-0.001054822146
-0.001156873595
-0.0006821108761
-0.000908839443
-0.001115536435
-0.001106811121
-0.001069680714
-0.0009417501771
-0.000864206352
-0.0007911832815
-0.0006535674866
-0.0007197155339
-0.0009042640056
-0.001087835453
-0.001178813996
-0.001258518044
-0.001131386254
-0.000949267208
-0.0007250929933
-0.0007605889354
-0.0009589038276
-0.001150318384
-0.0006744738479
-0.0008797408627
-0.001139049976
-0.001046947804
-0.001006100279
-0.0008588591922
-0.000802157848
-0.0008074912821
-0.0006361125653
-0.0005908741599
-0.0007081170725
-0.0009518508321
-0.001191486486
-0.00130850213
-0.001066516116
-0.0006532927118
-0.0002492788185
-0.0004558678622
-0.0007189128277
-0.0009843180715
-0.0007882690177
-0.000870944628
-0.001045478074
-0.0009662082051
-0.0009001296559
-0.0008436397594
-0.0007996765442
-0.0008184638515
-0.0005918519498
-0.0004850324208
-0.0004360975113
-0.0007929443848
-0.001103687788
-0.001242673153
-0.000955057826
-0.000606372579
-0.0003777773658
-0.0005170368072
-0.0006915391916
-0.0008763195095
-0.0009136058275
-0.0009869004343
-0.001089114211
-0.001102092627
-0.0009999336749
-0.0008137176911
-0.0007216109309
-0.0007673515807
-0.0005788363362
-0.0006229049217
-0.000567484484
-0.0007445811837
-0.00102252775
-0.001162893029
-0.0008185275353
-0.0004377666365
-0.0003724198913
-0.0004105831818
-0.0006373051403
-0.0008047473822
-0.001031701721
-0.001191095646
-0.001290000572
-0.001318112401
-0.00131667928
-0.001048923478
-0.0007869092526
-0.0008630505363
-0.0008895625045
-0.0009201391782
-0.0009512741821
-0.0009841834337
-0.001126165941
-0.001040382924
-0.0008178096581
-0.0005803579826
-0.0004167813326
-0.0002006374492
-0.0004582579202
-0.0006718667285
-0.001026507307
-0.00119395073
-0.001257896793
-0.001272890481
-0.001325776928
-0.001274924072
-0.001219420975
-0.001198207465
-0.001161141616
-0.001130433801
-0.001173006001
-0.001164541579
-0.001253649887
-0.001033244116
-0.0007830085604
-0.0006712807497
-0.0004502627002
-0.0003224906691
-0.0004997085916
-0.0007140910001
-0.0009375792332
-0.001204162839
-0.001210956063
-0.001268910253
-0.001309792127
-0.001437315882
-0.001422064938
-0.001509243156
-0.001350430481
-0.00127867522
-0.001221216745
-0.001307625111
-0.001291098049
-0.001206605867
-0.0009785753029
-0.0007229427616
-0.0003736081985
-0.0003056876153
-0.0006177856358
-0.0009564761788
-0.0009666438044
-0.00116440493
-0.001200823663
-0.001245248067
-0.001269143059
-0.001276128887
-0.001313982168
-0.001204672596
-0.001052145591
-0.001191450538
-0.001265127874
-0.001482961535
-0.001407398382
-0.001348032692
-0.001278916466
-0.001074858409
-0.0008841768209
-0.0008135737009
-0.0009888490019
-0.001235538433
-0.0008958832255
-0.001036643622
-0.001091611747
-0.00114272398
-0.001298837035
-0.001249129738
-0.001222854682
-0.0009819019037
-0.0007332141645
-0.0009290625752
-0.001160557433
-0.001358213236
-0.001243378634
-0.001202355739
-0.001193677173
-0.001205272289
-0.00129389082
-0.001124547583
-0.00122833595
-0.001248020024
-0.000970081199
-0.0009456053479
-0.0008451806196
-0.0009082334753
-0.001067637149
-0.001171606632
-0.0009986038992
-0.0007628606163
-0.0005880365744
-0.0008065346758
-0.001012220557
-0.001203573819
-0.001185094921
-0.001214048416
-0.001238470395
-0.0012743595
-0.001345195004
-0.001115434861
-0.00118716078
-0.001046384913
-0.000951140135
-0.0007593397781
-0.0005990581299
-0.0006434032268
-0.0007956165879
-0.0009879713733
-0.0008360885723
-0.0006557968913
-0.0003994406366
-0.0005774801996
-0.0007373001113
-0.0007773706358
-0.0009060995324
-0.0009892243892
-0.001109763448
-0.001208412749
-0.001272651056
-0.0009633921252
-0.001041896026
-0.000912802495
-0.0008985370385
-0.0006601716853
-0.0006371616993
-0.0006163378213
-0.0007409006284
-0.0008783375703
-0.0008077155869
-0.0006032932339
-0.0004546162089
-0.0005150555798
-0.0005890139765
-0.0004580585617
-0.000718093093
-0.0008327360725
-0.001070529887
-0.001171196957
-0.001015374347
-0.0007171683208
-0.0008414222
-0.0009058319259
-0.000823477343
-0.0005346580794
-0.0005962361583
-0.0006403000832
-0.000876689633
-0.0009519236724
-0.000743336683
-0.0004666326554
-0.0002817507694
-0.0004693657898
-0.0006241279931
-0.0006608909899
-0.0007763101801
-0.0007780239398
-0.0009972203269
-0.001160777196
-0.001118521471
-0.001013410474
-0.000923404234
-0.0009419150096
-0.0009564571085
-0.0007439240066
-0.0007932439282
-0.000896225342
-0.001068448018
-0.001082582171
-0.0008232146171
-0.0005426099253
-0.0003658551138
-0.0006202970953
-0.0008492402481
-0.001095071416
-0.001166257166
-0.001104975999
-0.001126313756
-0.001171232195
-0.001302957142
-0.001337942772
-0.001187871732
-0.001169170701
-0.001027125926
-0.000876261051
-0.0008906644057
-0.001084737622
-0.001188171469
-0.001193538947
-0.0009652264312
-0.0007161806102
-0.0004129717001
-0.0006773886365
-0.0009932450015
-0.001337511186
-0.001411941469
-0.001339659897
-0.001342138589
-0.001222249558
-0.001306904841
-0.001355833661
-0.001270973166
-0.001085179827
-0.0009439177475
-0.0009443417105
-0.0009770750467
-0.00114452183
-0.001318080165
-0.001345284169
-0.001206266466
-0.001035241018
-0.0008632071467
-0.0009616321307
-0.001192221467
-0.001309314611
-0.001334748786
-0.001322104794
-0.001265692554
-0.001189794684
-0.001253206713
-0.001349016449
-0.001145604414
-0.0007928178896
-0.0008996901935
-0.0009700012757
-0.00108734515
-0.001244440395
-0.001345841814
-0.001401179794
-0.001318467699
-0.001256364318
-0.001106662709
-0.001130240536
-0.00137033499
-0.001408144491
-0.001386818065
-0.001286749035
-0.00119652665
-0.001113259892
-0.001188718909
-0.001227376148
-0.0009594773243
-0.0005117550838
-0.0009705267882
-0.001037809869
-0.00113169376
-0.001297015499
-0.001384787001
-0.001388820206
-0.001244745678
-0.001269974259
-0.001234042306
-0.001198058639
-0.001298131013
-0.001283474209
-0.001195006193
-0.001202381445
-0.001091906818
-0.001057626321
-0.001170158485
-0.00133317639
-0.001028705328
-0.0004314894859
-0.0008858299124
-0.0009594580744
-0.001048959269
-0.001143797288
-0.001278996787
-0.00135733589
-0.001240462111
-0.001326341112
-0.001191630819
-0.001183909405
-0.001164120828
-0.001119004766
-0.001055146452
-0.001149091949
-0.001022711396
-0.0009371094447
-0.001020302479
-0.001208906324
-0.001151504854
-0.000720363316
-0.0002458412298
-0.0003400759463
-0.0004877918638
-0.0005630406902
-0.0006411392355
-0.0005283854054
-0.0003936373018
-0.0003698080116
-0.0003664513442
-0.0004280609332
-0.0005479337525
-0.0006512713899
-0.0007921489761
-0.000821476081
-0.0008741344662
-0.0006555688014
-0.0004320392037
-0.0003684092055
-0.0004947092249
-0.0006698100902
-0.0002739486705
-0.000387715276
-0.0005330157789
-0.0005321944854
-0.0005121826408
-0.0003772618933
-0.0002509214747
-0.0002195177238
-0.00015976878
-0.0001731705995
-0.0003397166367
-0.000527196309
-0.000708594345
-0.0008375510131
-0.0007377249722
-0.0005006218417
-0.0002116865844
-0.0001557638501
-0.0004278787342
-0.0007409191762
-0.00031742556
-0.0004200938618
-0.0005693206149
-0.0005113674996
-0.0004540685477
-0.0003243957743
-0.0002320554377
-0.0002127640104
-0.0001426611731
-0.000112072768
-0.0001890498677
-0.0003997721493
-0.0006702744145
-0.0009071052726
-0.000628406214
-0.0002719547533
3.052764286e-05
-2.995269692e-05
-0.0002651941234
-0.0005365193239
-0.0004121945139
-0.0004629070373
-0.0005602753936
-0.0004821084326
-0.0003859360667
-0.000295271782
-0.0002367552174
-0.000218157053
-0.0001134412987
-4.201117704e-05
-8.750362272e-06
-0.0002650841861
-0.0005425055481
-0.0007079930574
-0.0004602870793
-0.0001745180822
-9.393496637e-06
-6.10314333e-05
-0.0002225668804
-0.0004277121237
-0.0004758163653
-0.0005422828601
-0.0006038052898
-0.0005623898146
-0.0004686844756
-0.0003209041634
-0.0002361785746
-0.0002106778747
-0.0001036161327
-8.242158856e-05
-3.565492204e-05
-0.0002719623954
-0.0005209209248
-0.0006546664602
-0.0003760927845
-9.018002792e-05
-4.159379496e-06
-6.652972259e-06
-0.0001692871725
-0.0003425592642
-0.0005212360326
-0.0006630962007
-0.0007192244799
-0.0006806665517
-0.0006712543267
-0.0005166575607
-0.000403935
-0.000361234608
-0.000318869908
-0.0003297291437
-0.0003893636751
-0.0005054299672
-0.0005813171173
-0.0005508097404
-0.0003406970098
-0.000143037684
-1.609513066e-05
8.248507825e-05
-9.149501237e-05
-0.0002710270888
-0.0005034167146
-0.000654159122
-0.0006808120335
-0.0006652430019
-0.0007219082247
-0.0007502651517
-0.0008183025521
-0.0006793864523
-0.0005768078674
-0.0005554195504
-0.0006577825586
-0.000672718571
-0.0006839609483
-0.0005742024552
-0.0003694396507
-0.0002146924552
-6.187687955e-05
6.697454585e-06
-0.0001407081685
-0.0003003834302
-0.0004772123857
-0.0007044715471
-0.0007183733646
-0.0007031817281
-0.0007787598741
-0.000858353414
-0.0008784525332
-0.000833692647
-0.000706331102
-0.0006357470609
-0.0006818929655
-0.0007804919127
-0.0007593253083
-0.0007319486818
-0.000559327753
-0.0003318841843
-0.0001163162443
-7.189387088e-05
-0.0002835600066
-0.0004683890269
-0.0004672164995
-0.0006635246863
-0.0007463399817
-0.0006652883958
-0.0006984742805
-0.0007290213213
-0.0007545860894
-0.0006310971872
-0.0005177953366
-0.0005665323843
-0.0006809801534
-0.0009274138033
-0.000823451993
-0.0007484609717
-0.0006814292105
-0.0005569392591
-0.0004590594122
-0.0004250579269
-0.0006031251119
-0.000670921949
-0.0004048677296
-0.000537616376
-0.0005604796323
-0.0005000565247
-0.0005842733979
-0.000621043893
-0.0005845638988
-0.0003971393166
-0.0002642118254
-0.0003384838254
-0.000446912775
-0.0006638929896
-0.0006710202718
-0.0006440457555
-0.0006431447246
-0.0007133930774
-0.0007683182649
-0.0007117438107
-0.000888333208
-0.000714624833
-0.0003848731941
-0.0003840388971
-0.000307372954
-0.0002723788051
-0.000424110628
-0.0005537867869
-0.0004040603243
-0.0001971546296
-0.0001160215599
-0.0002214999203
-0.0003415282931
-0.0005086449364
-0.0006045886182
-0.0005773887773
-0.0006427247486
-0.000846504585
-0.0008692120326
-0.0006909119297