/*--------------------------------*- C++ -*----------------------------------*\
  =========                 |
  \\      /  F ield         | OpenFOAM: The Open Source CFD Toolbox
   \\    /   O peration     | Website:  https://openfoam.org
    \\  /    A nd           | Version:  7
     \\/     M anipulation  |
\*---------------------------------------------------------------------------*/
FoamFile
{
    version     2.0;
    format      ascii;
    class       volScalarField::Internal;
    location    "60";
    object      coalCloud:hsCoeff;
}
// * * * * * * * * * * * * * * * * * * * * * * * * * * * * * * * * * * * * * //

dimensions      [1 2 -2 -1 0 0 0];

value           nonuniform List<scalar> 
16320
(
1.77043104e-05
1.862285292e-05
1.673777944e-05
1.610267315e-05
1.371873259e-05
1.370842999e-05
1.495157239e-05
1.551103337e-05
1.763412727e-05
1.861984102e-05
2.017664912e-05
2.062719989e-05
2.063490702e-05
1.851087471e-05
1.641589008e-05
1.594594423e-05
1.672758117e-05
1.820371876e-05
1.682340156e-05
1.654219253e-05
1.790295194e-05
1.763899979e-05
1.629956363e-05
1.511739002e-05
1.34161838e-05
1.330139347e-05
1.557709309e-05
1.461779553e-05
1.534187421e-05
1.756136887e-05
1.842461672e-05
1.98958559e-05
1.950429653e-05
1.950418744e-05
1.774809133e-05
1.868193583e-05
1.846799162e-05
1.780015457e-05
1.820099785e-05
1.761713988e-05
2.045996088e-05
1.799937065e-05
1.732755885e-05
1.488229294e-05
1.504350165e-05
1.397154393e-05
1.524026115e-05
1.464588838e-05
1.420553476e-05
1.464012093e-05
1.643856214e-05
1.732921408e-05
1.850228142e-05
1.858591901e-05
1.863508833e-05
1.854514278e-05
1.903257984e-05
1.82815249e-05
2.020234398e-05
1.994766826e-05
2.092573293e-05
1.818694105e-05
1.637163998e-05
1.396057187e-05
1.527522229e-05
1.622577418e-05
1.862244194e-05
1.700382654e-05
1.647121597e-05
1.545813182e-05
1.732965418e-05
1.791381257e-05
2.013305853e-05
2.064790705e-05
2.088114361e-05
1.913870296e-05
1.738096515e-05
1.799298892e-05
1.8882794e-05
1.93176527e-05
2.07996589e-05
2.033586649e-05
1.767932975e-05
1.605524225e-05
1.854773718e-05
1.771190475e-05
1.954436469e-05
1.82778052e-05
1.651128503e-05
1.629171371e-05
1.554269659e-05
1.583572029e-05
1.743437938e-05
1.929903236e-05
1.892863836e-05
1.888129396e-05
1.726408165e-05
1.877856635e-05
1.84444779e-05
1.686158652e-05
2.152989872e-05
2.102701086e-05
2.034990688e-05
1.881952245e-05
2.01372146e-05
1.762810932e-05
1.728229909e-05
1.845425414e-05
1.784130325e-05
1.926174366e-05
1.71141577e-05
1.752638562e-05
1.733782608e-05
1.644353852e-05
1.717998725e-05
1.683154215e-05
1.70399081e-05
1.724098455e-05
1.778355721e-05
1.525510167e-05
1.884205464e-05
1.845058898e-05
1.794466697e-05
1.735428797e-05
1.75015138e-05
1.587763429e-05
1.52220859e-05
1.569809527e-05
1.60099592e-05
1.829981806e-05
1.526089639e-05
1.538147685e-05
1.72304473e-05
1.615754706e-05
1.788456648e-05
1.721493668e-05
1.794805921e-05
1.650475205e-05
1.617320234e-05
1.545210831e-05
1.772254109e-05
1.816010837e-05
1.665869032e-05
1.789853012e-05
1.714725838e-05
1.66747574e-05
1.540749746e-05
1.6262328e-05
1.580885298e-05
1.719655963e-05
1.52471809e-05
1.486479173e-05
1.597050815e-05
1.603499303e-05
1.625380439e-05
1.543289054e-05
1.583308729e-05
1.519646661e-05
1.558100888e-05
1.447383833e-05
1.69951431e-05
1.647713889e-05
1.559146858e-05
1.662250483e-05
1.712365158e-05
1.534265654e-05
1.542608329e-05
1.41436927e-05
1.403539309e-05
1.758383423e-05
1.81924085e-05
1.664412203e-05
1.810622249e-05
1.810381956e-05
1.879409548e-05
1.816996579e-05
1.796609312e-05
1.599528982e-05
1.375853087e-05
1.39552363e-05
1.818966425e-05
1.634709255e-05
1.639587592e-05
1.513275919e-05
1.539090427e-05
1.521258571e-05
1.755120511e-05
1.497373768e-05
1.382118145e-05
1.57027043e-05
1.803413313e-05
1.780596253e-05
1.809006609e-05
1.84545164e-05
1.802987979e-05
1.817049345e-05
1.682771845e-05
1.581200943e-05
1.314384022e-05
1.397935919e-05
1.877736667e-05
1.661117016e-05
1.652511513e-05
1.57165363e-05
1.650855948e-05
1.648624204e-05
1.784976173e-05
1.571435324e-05
1.637134308e-05
1.755104331e-05
1.962869798e-05
2.044925636e-05
2.228597107e-05
2.412453159e-05
2.060155305e-05
1.682277025e-05
1.56685648e-05
1.366984129e-05
1.350881356e-05
1.568941391e-05
1.830227231e-05
1.701418116e-05
1.909085107e-05
1.621610763e-05
1.419224516e-05
1.448842806e-05
1.513307675e-05
1.556314452e-05
1.563977839e-05
1.692081999e-05
1.725225706e-05
1.898606089e-05
1.996497678e-05
2.305304673e-05
2.206621214e-05
1.768844561e-05
1.687739078e-05
1.436261765e-05
1.631682828e-05
1.863123773e-05
1.728239879e-05
1.706117046e-05
2.0622069e-05
1.843175797e-05
1.450138042e-05
1.432499336e-05
1.511707466e-05
1.660959982e-05
1.582383647e-05
1.445589704e-05
1.502866644e-05
1.5192126e-05
1.697913948e-05
1.823216019e-05
2.018121016e-05
1.859434951e-05
1.69904718e-05
1.533207024e-05
1.686148332e-05
1.646094821e-05
1.798472234e-05
1.679102201e-05
1.739082882e-05
1.711860132e-05
1.617860357e-05
1.698194796e-05
1.52279437e-05
1.452407786e-05
1.570731722e-05
1.425654533e-05
1.511256764e-05
1.448451108e-05
1.692782986e-05
1.74238241e-05
2.054091764e-05
2.077069254e-05
1.984167815e-05
1.714402442e-05
1.418304918e-05
1.300337822e-05
1.731058776e-05
1.789728472e-05
1.781414249e-05
1.870677574e-05
1.728808258e-05
1.716530029e-05
1.663645882e-05
1.426952351e-05
1.490542506e-05
1.45655498e-05
1.332749353e-05
1.357909944e-05
1.52836767e-05
1.740725459e-05
1.872124116e-05
1.983074532e-05
1.865914125e-05
1.744205085e-05
1.363010734e-05
1.365921971e-05
1.556602159e-05
1.548358421e-05
1.641205123e-05
1.772935329e-05
1.802751718e-05
1.624286716e-05
1.612183118e-05
1.598175962e-05
1.772930296e-05
1.689065195e-05
1.380639123e-05
1.405064633e-05
1.586891181e-05
1.920067218e-05
1.894450431e-05
1.708277233e-05
1.686826245e-05
1.504461892e-05
1.419215076e-05
1.540780059e-05
1.562727307e-05
1.596127379e-05
1.746047453e-05
1.678585035e-05
1.72538459e-05
1.723359207e-05
1.819122463e-05
1.670052119e-05
1.636196304e-05
1.574638553e-05
1.513712636e-05
1.635478702e-05
1.545172363e-05
1.825128452e-05
1.945148368e-05
1.661434311e-05
1.757418821e-05
1.559033469e-05
1.72739591e-05
1.814122943e-05
1.730620087e-05
1.657352756e-05
1.758818e-05
1.803165323e-05
1.93879056e-05
1.821092594e-05
1.776923692e-05
1.742157331e-05
1.576522176e-05
1.622151671e-05
1.540915626e-05
1.629768842e-05
1.525674147e-05
1.858151089e-05
1.871532691e-05
1.577748202e-05
1.695172374e-05
1.598912797e-05
1.863904762e-05
1.711716022e-05
1.747991688e-05
1.8314795e-05
1.993012245e-05
1.915185006e-05
1.940347725e-05
1.906587052e-05
1.585882457e-05
1.522840019e-05
1.466748892e-05
1.549318012e-05
1.593189507e-05
1.669608724e-05
1.439107595e-05
1.655656386e-05
1.760330991e-05
1.554178093e-05
1.736157838e-05
1.60582918e-05
1.806770592e-05
1.669699572e-05
1.960177254e-05
1.933761423e-05
1.963604443e-05
1.922743395e-05
1.758848839e-05
1.743050957e-05
1.507006059e-05
1.578165487e-05
1.500818134e-05
1.697653783e-05
1.599766169e-05
1.456542291e-05
1.248969061e-05
1.400852313e-05
1.455993401e-05
1.392086552e-05
1.586942961e-05
1.522187383e-05
1.718709652e-05
1.580815688e-05
1.487475719e-05
1.535375545e-05
1.478035113e-05
1.36244304e-05
1.251579701e-05
1.359381627e-05
1.348828003e-05
1.420777496e-05
1.46869466e-05
1.587342102e-05
1.664757211e-05
1.721258157e-05
1.649022278e-05
1.602631898e-05
1.438237395e-05
1.457974207e-05
1.546429712e-05
1.553556709e-05
1.442314242e-05
1.35136296e-05
1.541780094e-05
1.57549092e-05
1.459213788e-05
1.370649842e-05
1.176649616e-05
1.195479077e-05
1.33389982e-05
1.336561508e-05
1.305498646e-05
1.391863148e-05
1.481343478e-05
1.577332354e-05
1.570202478e-05
1.576805019e-05
1.484853583e-05
1.541957352e-05
1.638714627e-05
1.574530067e-05
1.646361477e-05
1.57211002e-05
1.664547914e-05
1.519527317e-05
1.436641131e-05
1.242311425e-05
1.179459562e-05
1.188747866e-05
1.312231359e-05
1.426820292e-05
1.306200723e-05
1.270921468e-05
1.470403835e-05
1.54440204e-05
1.671919584e-05
1.654420615e-05
1.666739593e-05
1.565301725e-05
1.542409589e-05
1.529449976e-05
1.670134075e-05
1.711296949e-05
1.825037657e-05
1.58137026e-05
1.475774226e-05
1.214718637e-05
1.239937199e-05
1.407668334e-05
1.482481909e-05
1.509247181e-05
1.373921971e-05
1.302705316e-05
1.454881395e-05
1.604985808e-05
1.711785218e-05
1.793613999e-05
1.74502918e-05
1.650923564e-05
1.473766133e-05
1.563873397e-05
1.578291759e-05
1.569457151e-05
1.761624698e-05
1.651693619e-05
1.492524654e-05
1.367573591e-05
1.435328753e-05
1.479200077e-05
1.54420389e-05
1.609281978e-05
1.478147455e-05
1.465279404e-05
1.371649476e-05
1.372702405e-05
1.46245779e-05
1.551355252e-05
1.540315517e-05
1.511882639e-05
1.420018658e-05
1.52225486e-05
1.576185449e-05
1.461086205e-05
1.78844433e-05
1.812476263e-05
1.731587252e-05
1.679408572e-05
1.67704022e-05
1.599260925e-05
1.494159432e-05
1.521668869e-05
1.570450334e-05
1.565614793e-05
1.489571394e-05
1.431448212e-05
1.501634717e-05
1.415959807e-05
1.529825264e-05
1.483682741e-05
1.5092279e-05
1.455850133e-05
1.424619983e-05
1.319615824e-05
1.689795446e-05
1.639891687e-05
1.637658712e-05
1.557184214e-05
1.578736884e-05
1.442344286e-05
1.431455553e-05
1.34407666e-05
1.403799889e-05
1.457352634e-05
1.298452182e-05
1.29431995e-05
1.392790913e-05
1.3709083e-05
1.481162614e-05
1.528089648e-05
1.502073178e-05
1.470353284e-05
1.358420859e-05
1.405566946e-05
1.49600178e-05
1.50686678e-05
1.412062878e-05
1.453067482e-05
1.378963697e-05
1.320753502e-05
1.330355211e-05
1.352906687e-05
1.467248756e-05
1.526388046e-05
1.342729395e-05
1.399224211e-05
1.402723481e-05
1.508400818e-05
1.388642531e-05
1.345970575e-05
1.309418036e-05
1.313894588e-05
1.252942291e-05
1.2926858e-05
1.462939144e-05
1.48368313e-05
1.352355216e-05
1.449674096e-05
1.35411955e-05
1.258480683e-05
1.379555992e-05
1.255245363e-05
1.226490411e-05
1.405707182e-05
1.468294642e-05
1.484831598e-05
1.510479764e-05
1.637358272e-05
1.538791099e-05
1.527339438e-05
1.428721688e-05
1.393160963e-05
1.220064214e-05
1.315048089e-05
1.462095e-05
1.401801622e-05
1.32704305e-05
1.32986269e-05
1.320018337e-05
1.305778154e-05
1.430561744e-05
1.353543063e-05
1.201306964e-05
1.351792417e-05
1.624827264e-05
1.694593157e-05
1.530430094e-05
1.570325624e-05
1.480956817e-05
1.424609338e-05
1.355123468e-05
1.288390856e-05
1.222280988e-05
1.386373211e-05
1.600089233e-05
1.497254865e-05
1.380936071e-05
1.401442381e-05
1.400500757e-05
1.503988095e-05
1.441363207e-05
1.326504738e-05
1.298796701e-05
1.467778198e-05
1.620775749e-05
1.787817633e-05
1.763591699e-05
1.949631256e-05
1.767643088e-05
1.437967384e-05
1.392933735e-05
1.217477829e-05
1.302558463e-05
1.413268732e-05
1.490412738e-05
1.397583283e-05
1.45653972e-05
1.31030651e-05
1.253370356e-05
1.428335352e-05
1.395989082e-05
1.407358069e-05
1.304596484e-05
1.322568657e-05
1.389777183e-05
1.505000343e-05
1.579305703e-05
1.750939182e-05
1.762018431e-05
1.500415635e-05
1.384831878e-05
1.262660455e-05
1.504447344e-05
1.612638465e-05
1.507265331e-05
1.406150686e-05
1.601661886e-05
1.397143145e-05
1.245306115e-05
1.303268934e-05
1.385340454e-05
1.370741466e-05
1.351391019e-05
1.215621649e-05
1.323470955e-05
1.317517927e-05
1.496932394e-05
1.547456078e-05
1.798433166e-05
1.75148964e-05
1.45791501e-05
1.345906541e-05
1.432497517e-05
1.506751352e-05
1.495251196e-05
1.360413617e-05
1.436547701e-05
1.402107423e-05
1.450392191e-05
1.42212122e-05
1.248864374e-05
1.136628612e-05
1.196839969e-05
1.145099008e-05
1.206507928e-05
1.231092744e-05
1.393486656e-05
1.479100308e-05
1.707473093e-05
1.844190336e-05
1.652260935e-05
1.547171884e-05
1.257442503e-05
1.189662691e-05
1.527354014e-05
1.457783779e-05
1.545234994e-05
1.533771336e-05
1.48356161e-05
1.509262756e-05
1.321875036e-05
1.163590776e-05
1.191103887e-05
1.264501694e-05
1.207005435e-05
1.347850566e-05
1.453967962e-05
1.61254217e-05
1.610565745e-05
1.626611652e-05
1.576446227e-05
1.511375754e-05
1.232449553e-05
1.249346773e-05
1.351089199e-05
1.341382624e-05
1.436325528e-05
1.557783516e-05
1.474492516e-05
1.412197346e-05
1.34841736e-05
1.394464338e-05
1.39530795e-05
1.312665518e-05
1.215683513e-05
1.327141212e-05
1.528847751e-05
1.678417744e-05
1.696883832e-05
1.495710827e-05
1.534952384e-05
1.378046851e-05
1.358079992e-05
1.490828004e-05
1.348753927e-05
1.433274915e-05
1.446557916e-05
1.468713455e-05
1.474500851e-05
1.555286563e-05
1.518449088e-05
1.423257252e-05
1.430873001e-05
1.317843485e-05
1.384701957e-05
1.411949451e-05
1.380162238e-05
1.556733191e-05
1.611329567e-05
1.399392309e-05
1.476637156e-05
1.39763558e-05
1.607434491e-05
1.636646171e-05
1.360968977e-05
1.434790056e-05
1.502862179e-05
1.626937668e-05
1.637685552e-05
1.579075685e-05
1.556221722e-05
1.414825373e-05
1.32793269e-05
1.30181861e-05
1.401406024e-05
1.49636297e-05
1.354843056e-05
1.546551157e-05
1.606890535e-05
1.382563906e-05
1.499836051e-05
1.409336322e-05
1.61435039e-05
1.546287208e-05
1.446604277e-05
1.626311174e-05
1.687376284e-05
1.688126148e-05
1.764355811e-05
1.632617965e-05
1.364359996e-05
1.279260455e-05
1.328865846e-05
1.334232811e-05
1.468591008e-05
1.472290056e-05
1.288294159e-05
1.468367166e-05
1.444155819e-05
1.299162648e-05
1.443338003e-05
1.421410978e-05
1.675725448e-05
1.617588569e-05
1.564982819e-05
1.654063443e-05
1.75847116e-05
1.667108255e-05
1.638505727e-05
1.602883566e-05
1.315772551e-05
1.271845173e-05
1.255594892e-05
1.376135877e-05
1.386879685e-05
1.365368695e-05
1.158176141e-05
1.263945948e-05
1.278142704e-05
1.237344841e-05
1.403074924e-05
1.321744437e-05
1.47021813e-05
1.434790756e-05
1.051550458e-05
1.106906278e-05
1.180965809e-05
1.056683829e-05
1.052895181e-05
1.096778987e-05
1.045883311e-05
1.045348116e-05
1.085295049e-05
1.104299391e-05
1.147542947e-05
1.149289077e-05
1.115091354e-05
1.156249232e-05
1.14661216e-05
1.27484559e-05
1.255039335e-05
1.267575056e-05
1.116843185e-05
1.0591546e-05
1.092807499e-05
1.111306775e-05
1.100714202e-05
1.001393314e-05
9.327378062e-06
9.699745049e-06
1.117167666e-05
1.079944736e-05
1.059496529e-05
1.002053989e-05
1.039948864e-05
1.111574754e-05
1.112191935e-05
1.15799702e-05
1.103663344e-05
1.147014519e-05
1.176514732e-05
1.171983898e-05
1.176704411e-05
1.144860459e-05
1.215455733e-05
1.137004476e-05
1.092083317e-05
9.45670071e-06
9.153572648e-06
9.140172423e-06
1.033955162e-05
1.153282983e-05
1.121504863e-05
9.602711986e-06
1.019897373e-05
1.085024044e-05
1.168000294e-05
1.186881526e-05
1.158214626e-05
1.081770013e-05
1.060940298e-05
1.062861578e-05
1.146103491e-05
1.155496854e-05
1.296893088e-05
1.186632368e-05
1.099218167e-05
9.447440031e-06
9.331012067e-06
1.001042336e-05
1.066722279e-05
1.194078913e-05
1.05916902e-05
9.39286593e-06
1.033902952e-05
1.143340021e-05
1.229911931e-05
1.264910566e-05
1.215577101e-05
1.103182368e-05
9.767407917e-06
1.007327112e-05
1.044898722e-05
1.077043978e-05
1.228761437e-05
1.156944193e-05
1.10539125e-05
1.06702678e-05
1.060350537e-05
1.089939892e-05
1.089302151e-05
1.130474222e-05
1.053768195e-05
9.881404172e-06
9.919855524e-06
1.04744728e-05
1.089738664e-05
1.135451638e-05
1.087665864e-05
1.024900251e-05
9.294660577e-06
9.706367356e-06
1.024535389e-05
1.050034536e-05
1.254106663e-05
1.241341612e-05
1.23513818e-05
1.207096367e-05
1.204363306e-05
1.15497071e-05
1.096068157e-05
1.04214827e-05
1.049030167e-05
9.950576511e-06
1.001713705e-05
9.901632963e-06
1.038634385e-05
1.000728943e-05
1.034021952e-05
9.792999261e-06
9.655463652e-06
9.642465481e-06
9.436220737e-06
9.705419334e-06
1.17696346e-05
1.151061778e-05
1.14353212e-05
1.104333387e-05
1.103441415e-05
1.049855716e-05
1.046485304e-05
9.882409199e-06
1.023229821e-05
9.860624155e-06
9.653939239e-06
9.549735134e-06
1.018398592e-05
9.779166717e-06
1.023526467e-05
9.952710292e-06
9.730348312e-06
9.810733422e-06
9.392727247e-06
1.051228413e-05
1.102049759e-05
1.112939201e-05
1.042586387e-05
1.05835163e-05
9.996628683e-06
9.883835994e-06
9.861178186e-06
1.008161707e-05
1.041837502e-05
1.034690898e-05
9.709578984e-06
1.031784235e-05
1.03410961e-05
1.041723528e-05
9.796896086e-06
9.298013319e-06
9.431646967e-06
9.563632381e-06
9.262175757e-06
1.066067467e-05
1.073140148e-05
1.069903893e-05
1.006021421e-05
1.031963141e-05
9.855623708e-06
9.219865258e-06
9.730574909e-06
9.216829541e-06
9.240547633e-06
1.01343137e-05
1.055738885e-05
1.167093482e-05
1.148211194e-05
1.135025278e-05
1.070307577e-05
1.006703977e-05
9.770563839e-06
9.74434636e-06
9.858609594e-06
1.196962619e-05
9.815942129e-06
9.759471995e-06
9.882180128e-06
1.011598911e-05
1.085273234e-05
9.907984983e-06
1.022088226e-05
9.648161221e-06
9.233735722e-06
9.707248384e-06
1.114478884e-05
1.217133862e-05
1.110937767e-05
1.088614552e-05
1.013942885e-05
9.614085782e-06
9.850967013e-06
9.49255625e-06
1.04508038e-05
1.198515482e-05
1.025649185e-05
9.857093307e-06
9.689480676e-06
9.987167039e-06
1.03960218e-05
1.054950364e-05
9.914793441e-06
9.091168497e-06
8.862149541e-06
9.584593699e-06
1.087562912e-05
1.253334412e-05
1.226982602e-05
1.291195772e-05
1.177761159e-05
1.013191794e-05
1.020921907e-05
9.685904467e-06
1.148286966e-05
1.142947651e-05
1.020295861e-05
9.46651654e-06
9.818414317e-06
9.370593204e-06
9.656566768e-06
1.034466845e-05
1.000965242e-05
9.430515817e-06
8.900094977e-06
8.835588934e-06
9.816188776e-06
1.074950866e-05
1.134541563e-05
1.17563151e-05
1.195789921e-05
1.076545857e-05
1.049177077e-05
9.987520667e-06
1.145613836e-05
1.174107654e-05
1.043590315e-05
9.465111311e-06
1.002132292e-05
9.331059687e-06
9.125336694e-06
9.404792926e-06
9.384767137e-06
8.778554922e-06
8.699580897e-06
8.100809645e-06
9.030226565e-06
9.616191856e-06
1.048200536e-05
1.070854374e-05
1.193286235e-05
1.208380957e-05
1.08774706e-05
1.06241282e-05
1.043562208e-05
1.05919686e-05
1.048606131e-05
9.624067505e-06
9.810316802e-06
1.009342092e-05
1.06297364e-05
1.036520887e-05
8.908573126e-06
7.766232622e-06
7.94645602e-06
7.623289152e-06
8.259999492e-06
8.99516408e-06
1.007429167e-05
1.083811521e-05
1.175094636e-05
1.305407129e-05
1.220086617e-05
1.201863908e-05
9.880035591e-06
9.208802508e-06
1.056121486e-05
9.891989314e-06
1.049005278e-05
1.074181424e-05
1.110135895e-05
1.092438348e-05
9.674400106e-06
8.296139564e-06
8.122463075e-06
8.497007084e-06
9.203011366e-06
1.056280496e-05
1.142630966e-05
1.175131484e-05
1.150399371e-05
1.183101396e-05
1.247578176e-05
1.290337546e-05
1.050066113e-05
1.027633445e-05
1.006599354e-05
9.743358048e-06
1.059377767e-05
1.104509935e-05
1.078106701e-05
1.041337408e-05
9.904471639e-06
9.637653606e-06
9.305790157e-06
8.699764704e-06
9.136325379e-06
1.069850926e-05
1.185006289e-05
1.250404197e-05
1.250485548e-05
1.125777034e-05
1.150915148e-05
1.137960869e-05
1.103883114e-05
1.179547757e-05
9.432447008e-06
9.885484163e-06
1.040792975e-05
1.075795837e-05
1.11957054e-05
1.14313277e-05
1.122681448e-05
1.034652619e-05
9.696269801e-06
8.961767026e-06
9.775670195e-06
1.039497836e-05
1.101998822e-05
1.258103949e-05
1.20377214e-05
1.08847585e-05
1.089103393e-05
1.126454633e-05
1.23015721e-05
1.30941576e-05
9.422669767e-06
1.022353389e-05
1.12351832e-05
1.185030256e-05
1.193069228e-05
1.17205631e-05
1.133286319e-05
1.053197119e-05
9.42783309e-06
9.137338008e-06
1.045410377e-05
1.105554888e-05
1.075060979e-05
1.137106723e-05
1.122320198e-05
1.031467973e-05
1.067075703e-05
1.092341974e-05
1.201707757e-05
1.214391039e-05
1.0594607e-05
1.169946241e-05
1.233038861e-05
1.289310001e-05
1.349990365e-05
1.261881602e-05
1.057211909e-05
9.980685775e-06
9.721971748e-06
9.658004273e-06
1.067849011e-05
1.089744498e-05
9.943403959e-06
1.056977389e-05
1.015473671e-05
9.914963547e-06
1.056961432e-05
1.133053801e-05
1.253330808e-05
1.220971893e-05
1.112732068e-05
1.238797244e-05
1.314944233e-05
1.294253533e-05
1.387054369e-05
1.291229496e-05
1.078095716e-05
1.07635187e-05
1.00126956e-05
1.04169767e-05
1.041211044e-05
1.008207561e-05
9.352697374e-06
1.04039292e-05
9.72616858e-06
9.384800305e-06
1.030177689e-05
1.056099384e-05
1.139674193e-05
1.074391712e-05
8.672172926e-06
8.387375483e-06
8.382399365e-06
8.108021891e-06
9.084271749e-06
8.273543905e-06
7.587478417e-06
7.605879076e-06
8.118411557e-06
8.623930367e-06
9.659241676e-06
9.414118637e-06
9.467102809e-06
1.012079207e-05
9.78849323e-06
9.633500762e-06
9.185977282e-06
9.187603097e-06
8.95644284e-06
9.80585316e-06
9.121786409e-06
8.598377682e-06
8.534209098e-06
7.786615164e-06
8.061788956e-06
7.641362749e-06
8.357681369e-06
8.274022565e-06
8.749817248e-06
8.276440807e-06
8.809363241e-06
9.873590251e-06
9.85974106e-06
1.08093763e-05
9.577563089e-06
9.146214139e-06
8.882025871e-06
9.001539842e-06
9.395574561e-06
9.853485185e-06
1.11202102e-05
1.023620896e-05
1.003535906e-05
8.592498653e-06
8.826487334e-06
7.737186831e-06
8.090144592e-06
8.379087033e-06
8.157941077e-06
7.254717689e-06
7.919609792e-06
8.888406024e-06
9.735297758e-06
1.042155923e-05
9.491810806e-06
8.541021725e-06
8.480878275e-06
8.374619266e-06
9.358685656e-06
9.037187652e-06
1.126513884e-05
1.092821444e-05
9.962730569e-06
8.921963919e-06
8.816385555e-06
8.222235047e-06
7.959860762e-06
8.069316713e-06
7.513997934e-06
7.154148422e-06
8.777394823e-06
9.791401882e-06
1.093664129e-05
1.098884776e-05
1.038483363e-05
8.603031104e-06
7.284759006e-06
7.249484028e-06
7.960793041e-06
8.473456428e-06
1.019633732e-05
9.836524928e-06
1.002292518e-05
1.034416068e-05
9.988458685e-06
9.861320477e-06
9.046804411e-06
8.120285976e-06
7.932367201e-06
7.3361971e-06
8.671299022e-06
1.000684099e-05
1.007404723e-05
1.059018866e-05
9.397150186e-06
8.383126383e-06
6.931790902e-06
7.21443912e-06
7.735679895e-06
8.915866831e-06
1.073562457e-05
1.025727623e-05
1.091323844e-05
1.049012673e-05
1.08147466e-05
1.001475856e-05
9.769267484e-06
8.148293342e-06
7.856715175e-06
7.138427912e-06
8.029423215e-06
8.439183727e-06
8.655966728e-06
8.410660474e-06
8.129457738e-06
7.183712249e-06
6.786420104e-06
7.439624206e-06
7.371856064e-06
8.402833194e-06
9.579760849e-06
9.456445846e-06
9.324101168e-06
9.062668942e-06
9.040216944e-06
9.051363742e-06
9.297189497e-06
8.741196616e-06
8.941882616e-06
8.003399392e-06
8.912625322e-06
8.639838029e-06
9.347329917e-06
8.337390305e-06
8.612332172e-06
7.281550107e-06
7.171250023e-06
7.459023782e-06
7.503979971e-06
9.20835268e-06
9.872936359e-06
1.032524063e-05
9.438435309e-06
9.552465115e-06
8.779945535e-06
9.341585994e-06
8.963602698e-06
9.388215284e-06
8.775657555e-06
8.229352138e-06
8.406463434e-06
9.162384491e-06
9.195009809e-06
8.349693486e-06
8.269736518e-06
7.415838974e-06
8.27367501e-06
8.233429198e-06
7.706611881e-06
9.138237273e-06
9.674906521e-06
9.438995573e-06
9.266692803e-06
8.501776546e-06
7.791123895e-06
7.768236843e-06
8.131638684e-06
8.043817243e-06
8.455345302e-06
9.328974756e-06
9.727563472e-06
1.178236948e-05
1.111344371e-05
9.361887874e-06
9.194695912e-06
7.880239191e-06
8.166266988e-06
7.726530647e-06
8.01146451e-06
9.596956153e-06
7.913549157e-06
8.097877331e-06
9.158729021e-06
8.245197559e-06
8.085109768e-06
7.99210953e-06
8.907809546e-06
8.304711275e-06
8.98829655e-06
8.62255854e-06
9.331141072e-06
1.059525949e-05
9.859005075e-06
8.967231404e-06
8.255380125e-06
7.961705575e-06
8.952351098e-06
7.94017119e-06
8.93245193e-06
1.013450254e-05
7.670829606e-06
7.383701641e-06
8.257856131e-06
8.322508341e-06
8.462739405e-06
8.551284063e-06
8.301194184e-06
7.516050055e-06
7.491778986e-06
7.474441075e-06
8.829008999e-06
1.090986198e-05
1.089502503e-05
1.070002581e-05
9.405782643e-06
8.775399188e-06
9.030419347e-06
8.077222904e-06
9.101852642e-06
9.319452402e-06
8.5005183e-06
7.548412773e-06
8.367728142e-06
8.407526922e-06
8.988910719e-06
8.878702269e-06
8.514510474e-06
7.355963149e-06
7.348041861e-06
7.309317216e-06
8.599462377e-06
9.543293276e-06
1.030411026e-05
9.788954777e-06
9.9841746e-06
9.413506226e-06
9.924258739e-06
9.062995543e-06
9.469498029e-06
9.727247516e-06
8.347634183e-06
7.370700062e-06
7.479144531e-06
7.718432234e-06
8.009419146e-06
7.922598577e-06
7.295933663e-06
6.559209144e-06
6.562666801e-06
6.370543489e-06
7.237147569e-06
8.407729758e-06
8.722655592e-06
8.652489478e-06
9.025791481e-06
9.646746829e-06
9.681460406e-06
1.000758836e-05
8.932429344e-06
8.487174235e-06
8.757734775e-06
8.229947883e-06
7.941753001e-06
9.033976295e-06
9.638113763e-06
9.431634538e-06
7.768527749e-06
6.520449267e-06
6.598500902e-06
6.014685189e-06
6.768959926e-06
7.869408569e-06
8.834126114e-06
9.565468793e-06
9.6021141e-06
1.131695428e-05
1.067149868e-05
1.04648425e-05
8.988300482e-06
8.205508322e-06
8.651944822e-06
7.987618536e-06
8.477666084e-06
9.303688474e-06
1.040522962e-05
9.815229569e-06
9.09162705e-06
7.427833629e-06
6.795694668e-06
6.78710942e-06
8.578579464e-06
1.013959655e-05
1.085100362e-05
9.867074971e-06
9.500214025e-06
1.016786392e-05
1.101442928e-05
1.058855003e-05
9.493496175e-06
9.7145475e-06
9.248130919e-06
8.506253153e-06
9.666821351e-06
9.753832245e-06
9.952611073e-06
9.569966513e-06
9.064116711e-06
8.168051706e-06
7.752700698e-06
7.065909902e-06
8.261460288e-06
1.051799071e-05
1.072115231e-05
1.0070322e-05
1.065985683e-05
9.824047527e-06
9.712468602e-06
9.831224548e-06
9.719343481e-06
1.000162851e-05
7.844087103e-06
8.047371933e-06
9.192059569e-06
9.489349957e-06
1.056734683e-05
1.042930022e-05
1.060205311e-05
9.504114469e-06
7.994328146e-06
7.451108847e-06
8.139993683e-06
8.873802563e-06
9.24702507e-06
9.390090854e-06
9.81787062e-06
1.006355496e-05
9.547004826e-06
1.049869145e-05
1.024900043e-05
1.021418273e-05
7.975116861e-06
8.627515323e-06
1.024979065e-05
1.016002844e-05
1.035677579e-05
1.076576765e-05
1.023734494e-05
1.00707548e-05
8.241811998e-06
7.941967216e-06
9.4781495e-06
9.625076312e-06
9.713358606e-06
8.913566957e-06
9.021986771e-06
9.214724508e-06
9.129711281e-06
1.022372915e-05
1.064839529e-05
1.061351809e-05
9.646198572e-06
9.895314593e-06
1.038576152e-05
1.115259981e-05
1.13433125e-05
1.174404546e-05
9.769521191e-06
9.521464666e-06
8.730825485e-06
8.51243785e-06
9.334471689e-06
9.743665206e-06
8.836289671e-06
8.48267451e-06
8.385375738e-06
9.38563673e-06
9.665823331e-06
1.13625126e-05
1.15729675e-05
1.101838911e-05
9.739268378e-06
1.075986322e-05
1.024485276e-05
1.009322029e-05
1.105023681e-05
1.151695547e-05
9.948630651e-06
1.043688944e-05
9.52146906e-06
9.936751288e-06
9.631346704e-06
8.71805846e-06
8.398910046e-06
9.194463269e-06
8.157533188e-06
8.278641138e-06
9.397193421e-06
1.083971392e-05
1.143626476e-05
9.915357283e-06
7.405602577e-06
7.033051357e-06
6.59656468e-06
6.330533198e-06
6.923898226e-06
6.39411456e-06
6.418445739e-06
6.640365432e-06
6.566445427e-06
7.283015942e-06
7.77375615e-06
7.827245584e-06
8.652710508e-06
8.898415515e-06
9.326811311e-06
8.507299058e-06
8.009646024e-06
7.651589807e-06
7.226329801e-06
7.733864983e-06
7.725783368e-06
7.071587455e-06
6.887320141e-06
6.09525666e-06
6.2752267e-06
6.195008271e-06
7.271170918e-06
6.857935841e-06
6.701456962e-06
7.082966649e-06
7.112166136e-06
7.730768237e-06
8.21825322e-06
9.086003202e-06
8.663780452e-06
8.465820018e-06
7.662673405e-06
7.869860284e-06
7.866655298e-06
8.516385383e-06
8.660449435e-06
7.968464403e-06
7.758862019e-06
6.795154394e-06
6.986405946e-06
6.434999988e-06
7.255451441e-06
6.867305944e-06
5.952144535e-06
5.73060988e-06
6.22352747e-06
7.239545539e-06
8.072767901e-06
9.282982419e-06
8.048179323e-06
7.152943386e-06
6.594271557e-06
6.653103538e-06
7.192835448e-06
7.350196181e-06
8.880989057e-06
8.534876578e-06
8.254654526e-06
7.543419185e-06
7.733330871e-06
6.705835546e-06
6.454474712e-06
5.82195538e-06
5.313002694e-06
5.552079207e-06
6.815083065e-06
7.678957769e-06
8.366502127e-06
8.69224727e-06
7.781418686e-06
6.624570311e-06
5.602340082e-06
5.807973226e-06
6.442218723e-06
6.904372794e-06
8.098639398e-06
8.017793771e-06
8.242063282e-06
7.978427486e-06
7.886595793e-06
7.500573049e-06
7.316033915e-06
5.937072147e-06
5.575338334e-06
5.731268626e-06
7.621250712e-06
8.518111805e-06
8.264554082e-06
8.523882317e-06
7.265209636e-06
6.201301552e-06
5.351352047e-06
6.036624115e-06
6.283929951e-06
6.823091604e-06
8.057693756e-06
8.362574463e-06
8.724665122e-06
7.998249491e-06
8.262941098e-06
7.670309609e-06
7.651714091e-06
6.169117663e-06
5.819938979e-06
5.494783798e-06
6.816899591e-06
7.429735093e-06
7.050344529e-06
6.989710432e-06
6.552482791e-06
5.449976992e-06
5.077218907e-06
5.724839322e-06
6.118602143e-06
6.657139038e-06
7.208873604e-06
7.51930544e-06
7.389428569e-06
6.926225776e-06
7.195232748e-06
7.391550009e-06
8.170156124e-06
6.977713411e-06
6.622014798e-06
6.071113134e-06
7.234907873e-06
7.118628161e-06
7.010667401e-06
6.680073875e-06
6.644963033e-06
5.576452107e-06
5.505720002e-06
5.622885362e-06
6.123057044e-06
7.153426964e-06
7.425535073e-06
8.226204082e-06
7.871816045e-06
7.459282974e-06
7.512891621e-06
7.512540271e-06
7.425799492e-06
7.149585234e-06
6.864436818e-06
6.36012086e-06
7.09327941e-06
7.757106002e-06
7.400421166e-06
7.200955278e-06
6.969493046e-06
5.987076048e-06
6.370784717e-06
6.252684157e-06
6.499190887e-06
7.213419726e-06
7.332056324e-06
7.8916377e-06
8.530707635e-06
7.256317663e-06
6.912718015e-06
6.592704383e-06
6.829396187e-06
6.549867303e-06
6.937565841e-06
7.462189007e-06
8.723514825e-06
1.023684992e-05
8.830971012e-06
7.452148776e-06
6.979643312e-06
6.310394789e-06
6.687208731e-06
6.305850069e-06
6.915499184e-06
7.576567745e-06
6.410229824e-06
6.903767508e-06
7.722167323e-06
6.968147809e-06
6.607440356e-06
6.580409296e-06
6.82306672e-06
6.759982388e-06
7.697720542e-06
7.563975474e-06
8.513952998e-06
9.010521008e-06
8.244464063e-06
7.35380681e-06
6.569413668e-06
6.723059439e-06
7.168481982e-06
6.656328292e-06
7.902522309e-06
7.683861134e-06
6.232468424e-06
5.994640875e-06
7.056597391e-06
7.754042943e-06
7.572375588e-06
7.847864191e-06
6.85699431e-06
6.513057952e-06
6.192160269e-06
6.135731562e-06
7.037629784e-06
8.491043207e-06
8.964057026e-06
8.01157434e-06
7.402572506e-06
8.236202425e-06
7.852081572e-06
6.84763337e-06
7.557288744e-06
7.00865992e-06
6.712714804e-06
5.730230486e-06
6.461533423e-06
7.442857891e-06
7.554192014e-06
7.750806599e-06
6.551852536e-06
5.792553619e-06
5.608559387e-06
6.016001787e-06
6.317480914e-06
6.952497267e-06
7.67611605e-06
7.131531384e-06
7.283264979e-06
7.972679642e-06
7.971768033e-06
7.692916353e-06
8.242505268e-06
7.367893844e-06
6.723857402e-06
5.405873018e-06
5.418070071e-06