/*--------------------------------*- C++ -*----------------------------------*\
  =========                 |
  \\      /  F ield         | OpenFOAM: The Open Source CFD Toolbox
   \\    /   O peration     | Website:  https://openfoam.org
    \\  /    A nd           | Version:  7
     \\/     M anipulation  |
\*---------------------------------------------------------------------------*/
FoamFile
{
    version     2.0;
    format      ascii;
    class       volScalarField;
    location    "60";
    object      cpavg;
}
// * * * * * * * * * * * * * * * * * * * * * * * * * * * * * * * * * * * * * //

dimensions      [0 2 -2 -1 0 0 0];

internalField   nonuniform List<scalar> 
16320
(
1224.04623
1182.058073
1224.04623
1184.191694
1224.04623
1224.04623
1224.04623
1224.04623
1183.029708
1224.04623
1183.615826
1224.04623
1184.404483
1224.04623
1224.04623
1224.04623
1224.04623
1181.817023
1224.04623
1181.793367
1224.04623
1224.04623
1224.04623
1224.04623
1224.04623
1224.04623
1183.303578
1224.04623
1224.04623
1182.505496
1224.04623
1184.214586
1224.04623
1184.741506
1224.04623
1183.090702
1224.04623
1224.04623
1224.04623
1224.04623
1183.485886
1224.04623
1186.063495
1224.04623
1185.936365
1224.04623
1224.04623
1224.04623
1224.04623
1224.04623
1224.04623
1224.04623
1224.04623
1224.04623
1224.04623
1224.04623
1181.339589
1224.04623
1181.503013
1224.04623
1224.04623
1224.04623
1224.04623
1224.04623
1224.04623
1224.04623
1181.751513
1224.04623
1179.837849
1224.04623
1182.68779
1224.04623
1185.165998
1224.04623
1183.07297
1224.04623
1224.04623
1224.04623
1224.04623
1181.459658
1224.04623
1185.891163
1224.04623
1224.04623
1185.954186
1224.04623
1182.103624
1224.04623
1224.04623
1224.04623
1224.04623
1224.04623
1224.04623
1184.663085
1224.04623
1179.608934
1224.04623
1177.804406
1224.04623
1224.04623
1184.485747
1224.04623
1186.932147
1224.04623
1186.440857
1224.04623
1224.04623
1182.153942
1224.04623
1182.728716
1224.04623
1186.526868
1224.04623
1224.04623
1224.04623
1224.04623
1224.04623
1224.04623
1178.439376
1224.04623
1224.04623
1224.04623
1224.04623
1224.04623
1224.04623
1224.04623
1224.04623
1224.04623
1224.04623
1184.802595
1224.04623
1224.04623
1187.738354
1224.04623
1183.118874
1224.04623
1177.946347
1224.04623
1224.04623
1224.04623
1224.04623
1186.064348
1224.04623
1187.557954
1224.04623
1187.698114
1224.04623
1186.118457
1224.04623
1224.04623
1224.04623
1224.04623
1224.04623
1224.04623
1224.04623
1224.04623
1224.04623
1224.04623
1181.04931
1224.04623
1224.04623
1224.04623
1224.04623
1224.04623
1187.433746
1224.04623
1224.04623
1224.04623
1224.04623
1185.626558
1186.294196
1224.04623
1187.154207
1224.04623
1186.007021
1224.04623
1184.139935
1224.04623
1224.04623
1224.04623
1183.242237
1224.04623
1185.67169
1224.04623
1224.04623
1224.04623
1185.246882
1224.04623
1224.04623
1224.04623
1224.04623
1224.04623
1224.04623
1224.04623
1224.04623
1186.518064
1224.04623
1185.766231
1224.04623
1224.04623
1224.04623
1224.04623
1224.04623
1224.04623
1184.497095
1224.04623
1182.89187
1224.04623
1181.160389
1224.04623
1183.046326
1224.04623
1184.527383
1184.998689
1224.04623
1224.04623
1224.04623
1224.04623
1224.04623
1224.04623
1182.241828
1224.04623
1183.141611
1224.04623
1224.04623
1224.04623
1224.04623
1224.04623
1224.04623
1180.410139
1224.04623
1183.216643
1224.04623
1184.042908
1184.688964
1224.04623
1186.4438
1224.04623
1224.04623
1182.120573
1224.04623
1224.04623
1182.777214
1182.769696
1224.04623
1224.04623
1224.04623
1178.792541
1224.04623
1224.04623
1224.04623
1224.04623
1224.04623
1224.04623
1224.04623
1224.04623
1224.04623
1224.04623
1184.29731
1224.04623
1183.62681
1224.04623
1224.04623
1224.04623
1224.04623
1182.921619
1224.04623
1224.04623
1179.786386
1224.04623
1183.363137
1224.04623
1184.500522
1224.04623
1184.18046
1224.04623
1185.150981
1224.04623
1224.04623
1224.04623
1224.04623
1185.594392
1224.04623
1185.3454
1224.04623
1224.04623
1183.542659
1224.04623
1224.04623
1224.04623
1224.04623
1224.04623
1224.04623
1224.04623
1224.04623
1185.006837
1224.04623
1185.285376
1224.04623
1224.04623
1224.04623
1224.04623
1224.04623
1224.04623
1186.459992
1224.04623
1224.04623
1224.04623
1184.248983
1185.280777
1224.04623
1224.04623
1224.04623
1185.766755
1224.04623
1224.04623
1224.04623
1224.04623
1224.04623
1224.04623
1224.04623
1224.04623
1187.848306
1224.04623
1224.04623
1224.04623
1186.333141
1224.04623
1224.04623
1224.04623
1224.04623
1187.191005
1224.04623
1224.04623
1185.941283
1224.04623
1185.786912
1224.04623
1224.04623
1180.829779
1186.242542
1224.04623
1224.04623
1224.04623
1186.519274
1224.04623
1224.04623
1186.538611
1224.04623
1186.876414
1224.04623
1224.04623
1224.04623
1186.289282
1224.04623
1224.04623
1224.04623
1224.04623
1182.349057
1224.04623
1224.04623
1224.04623
1185.808933
1224.04623
1224.04623
1185.808192
1224.04623
1224.04623
1224.04623
1224.04623
1224.04623
1186.358346
1224.04623
1224.04623
1186.526755
1224.04623
1186.327124
1224.04623
1224.04623
1224.04623
1183.47275
1224.04623
1224.04623
1183.844077
1224.04623
1224.04623
1224.04623
1185.307948
1224.04623
1184.966683
1224.04623
1224.04623
1224.04623
1224.04623
1224.04623
1224.04623
1224.04623
1224.04623
1183.038681
1224.04623
1224.04623
1224.04623
1224.04623
1224.04623
1224.04623
1163.978166
1224.04623
1162.215381
1224.04623
1162.200502
1224.04623
1163.624635
1224.04623
1164.147783
1224.04623
1224.04623
1224.04623
1224.04623
1224.04623
1224.04623
1224.04623
1162.914701
1224.04623
1166.048072
1224.04623
1224.04623
1224.04623
1224.04623
1224.04623
1224.04623
1224.04623
1224.04623
1224.04623
1224.04623
1224.04623
1224.04623
1161.098889
1224.04623
1160.970498
1224.04623
1224.04623
1224.04623
1224.04623
1224.04623
1224.04623
1224.04623
1224.04623
1158.976578
1224.04623
1224.04623
1161.808041
1224.04623
1164.972364
1224.04623
1163.555527
1224.04623
1224.04623
1224.04623
1224.04623
1160.719489
1163.807114
1224.04623
1167.615293
1224.04623
1224.04623
1162.888905
1224.04623
1224.04623
1224.04623
1224.04623
1224.04623
1164.062214
1224.04623
1164.679872
1224.04623
1159.495399
1224.04623
1157.237451
1224.04623
1224.04623
1224.04623
1224.04623
1224.04623
1224.04623
1224.04623
1224.04623
1224.04623
1158.006323
1224.04623
1158.998526
1224.04623
1224.04623
1224.04623
1224.04623
1224.04623
1224.04623
1224.04623
1224.04623
1156.844433
1224.04623
1224.04623
1166.481118
1224.04623
1167.845506
1224.04623
1165.014773
1224.04623
1224.04623
1159.722285
1224.04623
1164.596986
1224.04623
1167.666992
1224.04623
1160.727598
1224.04623
1153.063228
1224.04623
1224.04623
1224.04623
1164.625162
1224.04623
1167.861417
1224.04623
1168.082046
1224.04623
1165.804448
1224.04623
1224.04623
1224.04623
1224.04623
1224.04623
1224.04623
1224.04623
1224.04623
1157.75432
1224.04623
1154.291719
1224.04623
1159.278698
1224.04623
1224.04623
1224.04623
1224.04623
1224.04623
1224.04623
1224.04623
1224.04623
1165.75832
1166.371557
1224.04623
1169.447844
1224.04623
1167.853006
1224.04623
1224.04623
1224.04623
1224.04623
1224.04623
1224.04623
1224.04623
1166.162605
1224.04623
1168.005893
1224.04623
1224.04623
1167.882566
1224.04623
1224.04623
1224.04623
1224.04623
1224.04623
1224.04623
1167.678867
1224.04623
1165.258867
1224.04623
1163.148796
1224.04623
1224.04623
1224.04623
1224.04623
1224.04623
1224.04623
1224.04623
1224.04623
1224.04623
1163.825557
1224.04623
1224.04623
1164.279055
1165.279745
1224.04623
1224.04623
1224.04623
1224.04623
1224.04623
1224.04623
1224.04623
1161.964873
1161.393474
1163.172528
1224.04623
1164.125136
1224.04623
1163.41667
1224.04623
1224.04623
1224.04623
1160.235058
1224.04623
1163.24905
1224.04623
1164.791169
1165.888451
1224.04623
1168.216041
1224.04623
1224.04623
1224.04623
1224.04623
1224.04623
1224.04623
1224.04623
1224.04623
1161.040476
1224.04623
1156.677655
1224.04623
1224.04623
1224.04623
1224.04623
1224.04623
1224.04623
1224.04623
1224.04623
1224.04623
1224.04623
1164.032984
1224.04623
1161.313128
1224.04623
1161.296573
1224.04623
1224.04623
1224.04623
1158.069053
1224.04623
1155.177582
1224.04623
1160.599519
1224.04623
1162.581445
1224.04623
1163.106494
1164.337539
1224.04623
1224.04623
1224.04623
1161.530624
1224.04623
1224.04623
1224.04623
1224.04623
1162.642913
1224.04623
1224.04623
1224.04623
1224.04623
1224.04623
1224.04623
1224.04623
1224.04623
1224.04623
1224.04623
1164.09294
1224.04623
1165.188603
1224.04623
1224.04623
1164.865968
1224.04623
1165.527292
1224.04623
1224.04623
1164.35116
1224.04623
1224.04623
1224.04623
1162.255138
1224.04623
1166.036618
1224.04623
1164.809779
1224.04623
1224.04623
1224.04623
1224.04623
1224.04623
1224.04623
1224.04623
1224.04623
1224.04623
1167.353289
1224.04623
1224.04623
1224.04623
1163.860372
1224.04623
1224.04623
1224.04623
1224.04623
1166.761611
1224.04623
1165.423005
1224.04623
1165.796577
1224.04623
1224.04623
1161.2674
1224.04623
1169.124839
1224.04623
1224.04623
1224.04623
1167.269987
1224.04623
1224.04623
1165.857905
1224.04623
1168.001734
1224.04623
1224.04623
1224.04623
1224.04623
1224.04623
1224.04623
1224.04623
1162.031176
1224.04623
1224.04623
1224.04623
1224.04623
1167.516674
1224.04623
1224.04623
1167.087236
1224.04623
1224.04623
1224.04623
1224.04623
1167.528656
1224.04623
1224.04623
1166.53604
1224.04623
1166.497604
1224.04623
1224.04623
1224.04623
1224.04623
1166.381446
1224.04623
1224.04623
1165.428064
1224.04623
1224.04623
1224.04623
1166.602468
1224.04623
1166.659381
1224.04623
1224.04623
1166.555738
1224.04623
1224.04623
1224.04623
1224.04623
1161.68913
1158.427496
1224.04623
1224.04623
1163.244077
1224.04623
1224.04623
1164.496407
1224.04623
1224.04623
1224.04623
1224.04623
1224.04623
1165.602745
1224.04623
1224.04623
1224.04623
1224.04623
1166.655309
1224.04623
1224.04623
1224.04623
1144.950907
1135.339964
1124.770254
1173.176938
1173.5574
1142.036873
1138.452046
1131.864519
1132.034032
1130.477986
1129.535089
1128.855245
1133.627501
1137.202236
1143.515382
1124.684045
1135.44023
1122.520319
1172.982195
1175.028253
1137.917613
1114.571873
1127.038591
1174.058254
1176.027335
1172.645403
1123.963585
1128.172755
1133.1653
1137.98945
1139.555254
1139.750514
1140.366638
1141.927837
1145.773066
1141.64652
1129.833456
1134.019825
1141.65465
1146.081577
1137.057191
1114.621273
1172.752302
1176.328526
1174.560242
1138.462646
1120.805294
1108.109799
1118.900312
1126.945402
1132.76276
1135.981184
1133.339949
1134.600288
1137.047872
1134.225145
1119.485862
1124.273223
1136.904051
1143.233801
1136.884398
1138.032953
1173.60864
1175.293519
1142.378854
1119.291953
1101.498401
1117.466925
1087.124254
1101.338117
1125.873836
1133.976974
1135.056713
1133.410426
1132.865675
1120.036901
1091.616718
1104.614959
1130.384744
1145.060713
1135.821108
1141.659848
1172.833881
1173.628867
1143.400718
1130.043623
1112.869779
1087.703412
1032.507839
1083.25858
1121.719164
1143.244456
1172.888914
1143.589329
1132.654058
1109.591984
1071.512447
1090.237732
1120.547935
1142.97503
1129.902502
1129.204548
1132.421729
1134.530255
1136.10626
1135.893204
1132.270235
1113.894915
1071.485173
1105.624184
1131.076126
1172.692695
1145.598823
1130.555323
1085.294318
1032.427298
1011.338357
1011.338357
1072.688434
1127.167852
1135.029877
1135.691707
1134.661827
1136.435969
1138.188157
1143.781063
1143.406762
1139.001159
1117.80462
1133.013481
1172.775495
1175.873962
1175.143296
1172.286842
1122.330378
1081.684658
1036.966995
1011.338357
1074.881436
1124.939193
1144.637319
1145.124256
1146.117568
1143.207034
1172.343488
1173.978067
1173.345781
1146.089522
1137.67354
1138.865405
1172.780244
1172.866227
1173.685145
1172.467257
1143.672024
1126.794476
1104.51086
1069.027551
1125.826633
1143.692564
1140.450951
1144.732583
1172.592246
1139.940094
1142.893686
1173.721219
1172.530174
1173.162689
1172.276125
1143.571197
1140.704344
1137.781651
1140.679184
1138.344817
1145.654178
1143.117641
1138.896478
1121.908728
1173.096432
1124.856025
1132.616142
1144.35929
1145.906427
1138.860529
1130.486799
1142.285147
1141.312729
1136.906697
1130.738459
1136.141063
1128.729852
1123.508999
1133.71274
1134.158247
1143.504663
1173.910464
1174.684709
1173.772452
1176.014624
1123.348039
1120.449081
1137.786366
1139.684843
1135.398938
1136.657722
1132.949735
1131.206749
1115.886032
1093.265875
1122.145038
1127.684469
1124.038006
1126.409843
1119.523686
1124.324876
1143.66008
1174.213515
1175.798677
1128.274173
1080.73146
1137.562648
1134.485686
1126.175085
1130.622873
1138.795845
1128.879867
1113.883098
1081.088825
1042.777671
1121.287552
1135.778098
1137.680345
1131.133553
1124.556847
1122.451587
1135.253561
1173.600788
1175.396625
1134.521346
1105.941997
1118.510545
1099.964759
1074.137034
1089.203984
1124.196098
1121.149732
1088.888692
1038.482821
1011.338357
1121.114712
1131.612406
1132.847726
1112.041494
1109.082497
1102.260922
1108.693463
1138.297602
1141.454404
1115.032257
1129.941689
1137.548737
1137.638224
1124.311784
1129.578954
1135.800789
1139.570646
1134.177067
1109.010273
1050.474506
1130.817173
1145.884683
1173.450672
1141.804365
1136.702423
1125.702775
1117.222125
1131.560803
1133.190876
1144.099326
1174.859538
1143.13259
1172.24937
1136.614487
1138.187609
1141.782127
1143.717881
1145.304583
1130.909389
1077.476409
1133.901257
1173.590863
1173.141818
1142.63531
1135.461205
1131.778611
1130.386656
1132.711046
1129.095813
1175.216117
1175.391377
1174.811657
1175.504359
1172.255777
1140.973866
1145.153703
1172.7996
1173.314409
1138.101986
1111.887754
1143.902384
1175.18652
1173.462595
1139.613588
1130.661876
1126.832277
1135.843543
1136.951355
1145.531077
1174.173194
1124.866046
1176.578523
1175.923783
1173.81165
1143.606999
1143.371563
1142.236496
1145.110401
1142.346257
1129.002198
1173.108833
1173.385696
1145.704802
1141.665637
1130.072688
1129.459962
1142.193924
1143.749507
1145.798756
1125.360645
1120.205323
1177.752928
1176.073591
1172.593444
1136.089955
1134.949885
1137.461908
1141.1804
1144.845649
1141.512415
1173.775307
1143.410204
1136.685014
1138.421831
1128.789597
1127.187571
1142.26116
1142.488157
1134.604704
1089.518016
1011.338357
1175.870687
1173.192545
1139.344366
1129.999205
1125.211001
1134.866609
1146.049554
1173.219321
1143.363297
1142.304216
1135.547951
1134.466178
1141.890195
1134.542293
1140.068722
1174.195265
1173.935614
1174.382606
1135.042907
1084.35468
1172.603261
1143.419331
1132.13853
1127.660627
1126.245942
1131.432624
1172.384629
1173.230979
1145.526956
1137.948898
1137.647306
1138.987083
1173.525864
1145.189531
1172.528972
1175.108477
1174.624806
1176.528952
1175.194023
1130.126605
1082.26852
1052.836833
1047.029371
1073.893871
1086.255114
1054.083608
1044.519326
1035.727614
1035.893658
1042.299437
1084.330845
1053.678694
1057.237081
1059.713311
1067.626525
1065.065986
1043.298799
1046.639218
1066.331163
1082.099501
1069.806558
1011.338357
1011.338357
1079.100829
1065.632291
1044.05107
1026.197007
1019.79749
1079.570271
1029.565982
1045.11879
1086.241155
1065.029288
1088.884339
1075.169319
1059.326755
1025.231715
1027.385154
1051.377956
1067.280052
1086.51981
1011.338357
1089.711534
1072.103014
1087.540183
1022.917513
1011.338357
1011.338357
1011.338357
1011.473845
1027.914021
1047.176515
1057.953155
1063.821123
1063.157927
1043.97789
1080.065598
1011.338357
1080.849833
1061.546269
1071.073751
1090.18129
1076.52403
1059.08795
1029.123417
1011.338357
1011.338357
1011.338357
1011.338357
1011.338357
1081.700444
1042.168665
1089.102428
1065.11989
1085.174894
1032.360012
1011.338357
1011.338357
1032.922988
1059.987704
1072.87037
1074.663843
1075.842611
1091.473331
1045.206124
1083.880398
1011.416341
1011.338357
1075.945834
1011.338357
1020.102131
1088.420852
1077.187437
1088.678473
1048.031336
1077.64827
1011.338357
1011.338357
1028.966891
1080.547431
1089.474871
1058.471234
1092.893053
1058.370552
1090.19211
1047.285924
1083.891547
1021.170117
1011.338357
1015.168393
1035.954716
1071.240225
1077.607965
1040.303787
1014.75395
1011.338357
1011.338357
1072.186681
1011.338357
1034.250186
1068.855113
1065.184767
1061.646345
1062.45126
1065.259374
1067.558018
1060.291854
1046.767027
1085.256374
1040.696131
1091.434346
1089.592139
1095.454803
1063.010967
1085.019095
1011.338357
1011.338357
1011.338357
1011.338357
1080.761316
1073.701917
1092.21747
1070.888794
1093.74743
1071.436911
1094.052905
1076.134583
1090.307156
1062.289262
1065.765319
1077.589668
1078.348933
1083.089812
1078.595657
1058.830879
1033.016946
1080.570014
1079.618982
1032.044857
1061.976684
1087.801942
1076.128612
1068.740217
1059.802591
1066.165804
1077.780724
1072.993563
1066.246574
1055.55717
1088.521605
1061.325411
1092.158851
1093.24773
1069.135734
1091.71624
1062.943521
1050.047114
1038.197546
1069.587179
1065.555954
1059.669464
1074.507984
1089.520706
1052.483561
1056.336033
1065.497515
1088.006382
1041.448555
1083.794046
1032.778077
1046.411749
1047.834959
1056.270955
1060.801255
1074.184575
1083.099687
1092.853275
1077.258636
1090.893165
1084.28255
1063.96352
1061.782803
1048.802294
1041.507159
1051.031003
1051.642704
1040.974243
1020.188331
1011.338357
1013.942648
1039.262987
1084.406485
1049.326347
1087.655466
1052.247384
1070.176674
1084.143386
1090.211121
1049.897654
1011.338357
1082.15269
1040.633397
1082.406788
1024.867547
1082.118059
1036.854509
1078.441115
1011.338357
1074.422005
1011.338357
1079.770106
1048.131627
1083.354176
1041.978164
1086.470139
1054.138963
1091.467134
1077.411614
1048.68839
1082.038511
1016.465821
1011.338357
1011.338357
1011.338357
1011.338357
1013.386146
1013.965912
1011.338357
1011.338357
1011.338357
1011.557156
1081.487791
1011.338357
1011.338357
1012.111853
1022.242531
1053.013903
1088.058331
1011.338357
1043.972934
1040.172145
1083.533458
1019.168888
1082.652911
1042.170254
1081.978084
1038.779045
1011.338357
1075.271601
1012.083814
1036.517115
1043.371439
1038.300687
1084.063893
1038.462469
1085.974575
1054.401626
1024.505446
1053.196099
1075.303103
1058.065371
1052.079655
1039.572414
1045.557071
1086.551804
1062.260607
1083.417204
1018.610018
1011.338357
1022.808685
1085.390091
1056.735027
1087.116755
1052.37438
1052.735022
1053.099983
1088.279338
1040.478464
1072.495485
1085.89872
1090.248518
1073.37689
1091.213101
1058.652047
1067.340062
1070.488464
1062.567721
1035.826272
1083.653002
1042.795364
1066.608799
1090.17207
1059.581736
1054.780204
1088.285623
1056.732041
1059.3508
1065.149087
1078.757547
1050.267029
1087.114353
1085.659446
1073.970507
1066.134586
1091.31018
1068.177654
1089.507445
1050.236787
1025.280191
1062.038826
1075.202889
1072.806071
1065.13587
1054.748032
1050.178561
1089.744063
1066.326672
1088.216693
1039.936935
1011.338357
1093.24081
1088.501888
1093.162861
1059.598894
1058.55843
1061.303502
1064.621087
1089.627391
1046.638477
1074.547021
1091.254972
1061.46003
1090.173721
1043.976168
1041.451999
1055.7016
1066.093091
1063.322347
1011.338357
1011.338357
1089.540984
1077.540268
1060.360829
1088.765777
1046.168333
1088.978923
1067.649631
1066.103022
1058.22062
1052.476276
1053.853214
1089.607022
1052.51699
1044.689862
1050.48326
1090.395792
1070.920097
1088.24849
1048.025974
1079.709443
1073.603271
1086.628703
1047.126331
1038.624754
1037.842012
1047.644212
1063.471967
1087.391915
1060.194419
1086.532414
1053.487898
1055.726207
1061.154313
1088.50793
1055.437838
1067.956854
1072.537311
1077.422941
1084.785014
1052.337182
1049.729003
1028.463706
1024.990731
1037.619321
1029.866723
1023.420809
1018.687635
1015.055786
1014.966846
1018.562448
1022.849018
1026.674197
1054.998373
1027.17274
1054.643662
1034.103244
1021.48906
1023.115458
1032.451384
1039.654366
1011.659238
1011.338357
1020.105408
1039.86035
1025.558296
1016.088576
1049.437866
1011.338357
1011.338357
1049.067728
1017.622512
1025.49718
1031.984159
1035.795397
1040.430755
1053.056681
1011.338357
1049.921152
1019.098356
1050.999056
1011.338357
1013.909435
1036.562626
1029.323671
1015.351716
1011.338357
1047.825661
1046.154565
1011.338357
1011.338357
1011.338357
1018.905911
1027.617854
1056.614596
1031.64826
1017.722071
1011.747522
1011.338357
1011.816755
1025.294913
1040.096485
1034.627053
1036.641612
1021.057298
1053.84036
1011.338357
1011.338357
1011.338357
1011.338357
1011.338357
1011.357909
1017.764832
1030.07666
1037.043904
1025.897575
1011.338357
1011.338357
1011.338357
1011.338357
1025.243545
1045.206565
1042.506737
1037.321827
1025.880718
1015.336096
1011.338357
1048.60189
1011.338357
1011.338357
1011.338357
1051.73201
1022.905118
1042.27335
1039.545545
1021.787828
1011.338357
1011.338357
1044.642378
1011.338357
1025.712666
1038.512486
1032.682976
1030.691705
1030.202775
1024.759702
1020.074825
1014.229795
1011.338357
1011.338357
1011.338357
1016.901531
1037.531086
1048.744862
1020.295743
1011.338357
1011.338357
1011.338357
1012.251639
1011.338357
1017.632161
1042.781658
1037.099256
1032.862736
1033.993235
1036.970818
1036.275116
1056.436785
1023.14133
1017.379868
1024.511389
1035.651047
1054.587932
1055.660195
1029.540934
1012.049377
1011.338357
1011.338357
1011.458738
1011.338357
1019.501078
1044.187293
1040.630429
1032.452991
1030.232903
1035.889961
1043.423906
1042.243095
1037.377566
1033.093628
1035.618977
1042.444536
1041.720735
1047.337535
1045.767834
1025.673969
1013.461446
1011.338357
1011.338357
1015.10688
1034.180323
1039.990834
1040.380289
1058.881411
1024.425948
1030.382943
1040.822103
1036.892563
1029.543317
1021.819178
1020.917973
1026.736589
1058.893646
1030.000732
1038.384991
1045.387782
1031.465582
1022.707147
1018.527403
1035.30324
1030.804435
1038.398305
1037.354362
1023.595208
1019.469569
1024.065674
1031.700807
1026.476872
1016.662145
1051.545882
1011.338357
1053.340572
1020.305003
1024.757925
1030.398595
1040.99787
1048.849438
1042.056476
1043.052419
1056.41883
1011.338357
1038.299042
1028.174125
1017.997862
1052.848433
1018.706233
1052.407262
1018.728053
1048.636769
1011.338357
1011.338357
1012.246963
1016.641805
1053.451782
1022.094892
1026.108356
1059.394141
1047.274659
1053.084896
1022.988879
1011.338357
1026.630051
1015.054238
1011.338357
1049.96815
1011.519108
1049.198152
1013.78507
1011.338357
1011.525598
1045.814948
1011.338357
1011.346759
1011.338357
1014.863921
1019.1675
1024.855124
1040.399657
1046.25493
1054.731264
1011.338357
1011.338357
1011.338357
1011.338357
1011.338357
1011.338357
1011.338357
1011.338357
1044.355137
1012.437058
1045.21143
1011.338357
1011.338357
1011.338357
1011.338357
1011.338357
1011.338357
1022.538963
1014.71924
1011.338357
1018.326422
1013.995695
1011.338357
1011.338357
1011.338357
1050.181162
1014.115148
1011.338357
1011.338357
1012.024588
1011.338357
1011.338357
1011.338357
1011.338357
1011.852753
1014.191182
1053.581926
1026.406684
1054.849017
1054.321913
1033.61395
1022.504579
1017.710755
1014.147911
1015.658669
1020.451336
1022.356602
1018.153647
1048.508668
1011.338357
1011.338357
1014.852012
1053.288838
1016.769548
1019.349831
1022.690601
1025.378171
1029.146245
1018.240017
1028.390297
1045.23256
1032.780618
1028.083339
1021.628324
1056.302368
1026.521352
1055.249921
1023.431492
1011.464967
1011.338357
1015.027535
1023.557946
1024.661096
1055.826396
1024.913639
1025.867306
1028.663069
1030.295699
1030.224648
1054.629194
1026.258159
1044.732392
1039.571953
1030.84431
1027.972732
1030.056222
1029.870249
1026.983032
1054.252368
1011.338357
1055.422496
1034.400346
1035.250582
1031.814957
1028.960894
1026.350103
1028.036077
1032.319949
1034.953197
1015.788532
1011.338357
1052.37758
1046.120858
1034.088162
1028.54533
1027.931842
1056.93598
1028.699314
1022.26247
1016.831515
1035.386858
1037.014403
1032.713667
1026.642609
1020.489479
1055.936286
1019.985699
1028.701881
1031.321178
1052.0365
1049.087223
1048.667224
1041.582156
1028.986803
1022.647046
1022.157854
1025.484107
1030.861817
1026.722661
1055.267855
1015.391867
1022.566838
1021.323422
1018.800138
1015.176406
1015.617997
1020.13845
1027.324819
1034.452456
1023.822873
1013.545046
1039.575792
1030.211116
1019.081195
1015.229836
1015.850761
1053.974154
1029.556554
1026.681233
1022.008984
1011.63613
1054.097909
1021.289468
1020.520861
1016.34322
1017.277534
1022.366544
1025.581785
1055.130618
1035.941098
1031.08385
1031.576517
1017.863469
1016.534951
1021.834617
1032.484472
1015.422803
1013.553597
1030.245949
1011.338357
1013.217756
1031.764602
1017.590084
1017.242163
1016.937466
1017.887512
1020.86297
1016.194751
1016.684737
1022.69009
1026.112039
1033.697244
1012.066204
1033.798268
1022.469899
1014.732097
1011.338357
1011.338357
1011.338357
1011.338357
1011.338357
1012.593525
1016.083432
1020.579
1023.748535
1027.41581
1019.623546
1013.432021
1012.005
1012.122796
1019.218293
1011.338357
1012.503943
1020.050691
1015.965164
1011.338357
1011.338357
1011.338357
1011.338357
1011.338357
1011.338357
1011.338357
1032.95602
1016.939788
1021.777501
1021.647747
1011.440794
1011.469948
1011.387459
1011.338357
1016.365361
1035.879867
1019.636581
1035.996975
1011.759578
1011.338357
1011.338357
1011.338357
1011.338357
1011.338357
1028.625022
1011.338357
1011.338357
1017.625816
1024.599312
1017.175265
1030.819374
1011.338357
1011.338357
1029.422532
1016.207955
1028.105941
1024.093847
1019.822518
1014.575799
1011.338357
1011.338357
1011.338357
1011.338357
1011.338357
1011.338357
1011.338357
1034.970869
1023.400402
1035.749211
1013.45011
1011.338357
1011.372569
1011.436678
1011.338357
1017.634403
1025.58606
1037.877452
1037.690426
1019.870476
1035.559946
1014.550589
1011.807547
1011.348305
1030.531876
1011.388349
1011.710417
1037.406839
1034.158352
1015.82246
1032.944787
1011.338357
1011.3573
1011.586669
1028.705454
1013.780149
1029.585704
1023.083183
1019.82609
1021.294527
1024.046287
1025.599019
1020.327346
1016.628851
1013.289071
1017.99183
1036.918609
1035.878538
1040.308838
1022.035698
1011.338357
1011.338357
1029.051961
1011.338357
1011.338357
1031.277965
1029.688788
1037.689328
1017.124664
1016.596946
1037.804174
1027.411529
1027.250716
1023.902326
1034.89726
1022.046917
1025.032098
1024.366468
1028.455346
1038.641962
1036.248961
1011.338357
1011.338357
1011.502597
1031.89442
1023.349471
1026.724426
1022.124959
1014.040865
1013.167004
1036.715851
1023.72944
1036.334207
1017.319091
1014.031918
1013.262393
1035.329839
1014.428037
1017.340243
1022.702761
1030.143487
1024.299952
1035.689242
1014.230963
1024.462886
1033.3164
1024.930629
1034.880098
1012.120388
1011.425545
1013.479617
1018.682131
1016.998054
1012.080449
1011.338357
1031.586624
1011.338357
1012.165317
1013.980219
1036.399259
1024.381386
1031.451634
1029.51889
1031.162895
1029.942071
1011.338357
1023.468575
1015.448913
1032.45747
1011.338357
1032.052845
1014.194686
1013.868901
1011.338357
1011.338357
1011.338357
1011.338357
1031.427599
1011.338357
1013.263583
1015.933669
1019.823897
1038.499168
1034.589979
1014.015718
1011.338357
1031.228155
1011.338357
1011.338357
1011.338357
1011.338357
1011.338357
1011.338357
1011.367793
1011.736762
1011.340014
1011.338357
1011.338357
1011.338357
1011.338357
1011.818892
1035.279821
1023.619271
1031.168985
1015.215494
1011.338357
1011.338357
1011.338357
1011.338357
1011.338357
1011.338357
1011.338357
1011.338357
1012.081166
1012.49819
1011.848484
1011.338357
1011.338357
1030.018735
1030.757101
1011.338357
1011.338357
1013.563655
1034.500785
1011.338357
1011.338357
1031.32642
1011.338357
1011.338357
1011.338357
1011.338357
1011.338357
1028.759959
1011.432862
1027.353475
1011.338357
1011.338357
1011.338357
1011.338357
1011.338357
1011.338357
1011.73399
1015.826008
1011.547968
1011.338357
1018.991286
1013.266825
1011.338357
1032.340179
1011.338357
1011.338357
1011.440209
1011.338357
1011.338357
1011.338357
1029.738841
1011.338357
1011.338357
1011.338357
1032.500302
1014.237358
1016.266183
1019.157909
1013.591696
1015.946393
1028.813954
1034.912161
1014.508673
1012.435249
1012.40272
1013.834878
1013.875668
1012.862231
1011.338357
1011.338357
1011.378916
1014.22265
1033.920141
1013.89359
1015.561149
1034.099045
1018.569898
1034.970873
1019.181631
1021.906754
1017.658066
1025.463416
1036.927854
1016.090954
1015.630306
1016.809463
1016.518216
1015.009755
1011.338357
1011.338357
1015.730053
1021.255593
1021.86327
1020.53435
1019.848847
1018.297457
1017.980509
1019.124685
1021.759248
1011.699506
1011.338357
1031.465366
1025.597905
1036.675841
1017.382396
1017.417202
1016.978741
1016.873456
1013.042412
1011.850687
1020.880919
1035.047574
1020.891844
1017.585113
1014.593012
1012.565739
1012.175187
1034.700225
1017.595134
1011.338357
1011.338357
1029.875201
1025.193995
1017.776354
1015.339733
1034.141791
1016.683575
1018.452601
1033.76114
1011.636245
1011.343061
1013.591742
1013.129084
1033.949555
1011.338357
1011.338357
1034.183253
1013.933841
1018.585095
1015.635586
1012.797959
1025.213192
1018.436121
1033.516076
1011.338357
1011.701456
1014.707345
1018.73866
1015.657914
1012.078932
1011.338357
1011.557425
1011.934016
1011.439675
1011.338357
1011.338357
1012.417114
1013.483033
1014.168553
1032.753706
1019.299429
1021.686244
1014.112323
1021.634424
1015.967741
1013.949588
1012.952614
1012.073858
1011.338357
1011.338357
1011.46837
1012.365363
1013.545097
1013.299373
1013.145815
1013.708921
1015.281521
1021.11833
1013.469282
1017.966959
1019.288377
1011.338357
1011.736275
1014.042698
1016.510145
1012.138537
1011.338357
1019.628872
1011.338357
1011.338357
1019.62199
1011.752738
1021.692028
1015.892808
1023.265184
1020.254645
1016.803837
1013.308103
1012.144767
1020.623312
1015.131424
1011.338357
1022.841217
1013.720079
1011.863909
1021.226403
1011.338357
1011.338357
1011.338357
1011.338357
1011.338357
1011.338357
1011.338357
1012.992989
1016.426493
1022.780441
1012.061599
1020.314959
1011.365403
1011.338357
1013.072924
1015.262417
1013.726187
1012.577537
1022.564955
1011.338357
1020.205296
1011.338357
1011.338357
1018.613609
1011.338357
1011.338357
1011.338357
1023.323269
1017.817815
1014.229701
1011.338357
1011.338357
1011.338357
1011.338357
1013.448539
1024.430096
1016.256623
1024.095755
1011.796138
1011.338357
1011.56538
1011.585105
1019.323668
1011.338357
1011.338357
1021.405336
1011.338357
1024.307618
1017.9717
1011.580708
1020.280584
1011.338357
1018.865265
1011.539209
1020.430806
1018.937168
1015.436443
1014.533785
1015.638334