/*--------------------------------*- C++ -*----------------------------------*\
  =========                 |
  \\      /  F ield         | OpenFOAM: The Open Source CFD Toolbox
   \\    /   O peration     | Website:  https://openfoam.org
    \\  /    A nd           | Version:  7
     \\/     M anipulation  |
\*---------------------------------------------------------------------------*/
FoamFile
{
    version     2.0;
    format      ascii;
    class       volScalarField;
    location    "60";
    object      kappaavg;
}
// * * * * * * * * * * * * * * * * * * * * * * * * * * * * * * * * * * * * * //

dimensions      [1 1 -3 -1 0 0 0];

internalField   nonuniform List<scalar> 
16320
(
0.1054929169
0.1054929169
0.1054929169
0.1054929169
0.1054929169
0.1054929169
0.1054929169
0.1054929169
0.1054929169
0.1054929169
0.1054929169
0.1054929169
0.1054929169
0.1054929169
0.1054929169
0.1054929169
0.1054929169
0.1054929169
0.1054929169
0.1054929169
0.1054929169
0.1054929169
0.1054929169
0.1054929169
0.1054929169
0.1054929169
0.1054929169
0.1054929169
0.1054929169
0.1054929169
0.1054929169
0.1054929169
0.1054929169
0.1054929169
0.1054929169
0.1054929169
0.1054929169
0.1054929169
0.1054929169
0.1054929169
0.1054929169
0.1054929169
0.1054929169
0.1054929169
0.1054929169
0.1054929169
0.1054929169
0.1054929169
0.1054929169
0.1054929169
0.1054929169
0.1054929169
0.1054929169
0.1054929169
0.1054929169
0.1054929169
0.1054929169
0.1054929169
0.1054929169
0.1054929169
0.1054929169
0.1054929169
0.1054929169
0.1054929169
0.1054929169
0.1054929169
0.1054929169
0.1054929169
0.1054929169
0.1054929169
0.1054929169
0.1054929169
0.1054929169
0.1054929169
0.1054929169
0.1054929169
0.1054929169
0.1054929169
0.1054929169
0.1054929169
0.1054929169
0.1054929169
0.1054929169
0.1054929169
0.1054929169
0.1054929169
0.1054929169
0.1054929169
0.1054929169
0.1054929169
0.1054929169
0.1054929169
0.1054929169
0.1054929169
0.1054929169
0.1054929169
0.1054929169
0.1054929169
0.1054929169
0.1054929169
0.1054929169
0.1054929169
0.1054929169
0.1054929169
0.1054929169
0.1054929169
0.1054929169
0.1054929169
0.1054929169
0.1054929169
0.1054929169
0.1054929169
0.1054929169
0.1054929169
0.1054929169
0.1054929169
0.1054929169
0.1054929169
0.1054929169
0.1054929169
0.1054929169
0.1054929169
0.1054929169
0.1054929169
0.1054929169
0.1054929169
0.1054929169
0.1054929169
0.1054929169
0.1054929169
0.1054929169
0.1054929169
0.1054929169
0.1054929169
0.1054929169
0.1054929169
0.1054929169
0.1054929169
0.1054929169
0.1054929169
0.1054929169
0.1054929169
0.1054929169
0.1054929169
0.1054929169
0.1054929169
0.1054929169
0.1054929169
0.1054929169
0.1054929169
0.1054929169
0.1054929169
0.1054929169
0.1054929169
0.1054929169
0.1054929169
0.1054929169
0.1054929169
0.1054929169
0.1054929169
0.1054929169
0.1054929169
0.1054929169
0.1054929169
0.1054929169
0.1054929169
0.1054929169
0.1054929169
0.1054929169
0.1054929169
0.1054929169
0.1054929169
0.1054929169
0.1054929169
0.1054929169
0.1054929169
0.1054929169
0.1054929169
0.1054929169
0.1054929169
0.1054929169
0.1054929169
0.1054929169
0.1054929169
0.1054929169
0.1054929169
0.1054929169
0.1054929169
0.1054929169
0.1054929169
0.1054929169
0.1054929169
0.1054929169
0.1054929169
0.1054929169
0.1054929169
0.1054929169
0.1054929169
0.1054929169
0.1054929169
0.1054929169
0.1054929169
0.1054929169
0.1054929169
0.1054929169
0.1054929169
0.1054929169
0.1054929169
0.1054929169
0.1054929169
0.1054929169
0.1054929169
0.1054929169
0.1054929169
0.1054929169
0.1054929169
0.1054929169
0.1054929169
0.1054929169
0.1054929169
0.1054929169
0.1054929169
0.1054929169
0.1054929169
0.1054929169
0.1054929169
0.1054929169
0.1054929169
0.1054929169
0.1054929169
0.1054929169
0.1054929169
0.1054929169
0.1054929169
0.1054929169
0.1054929169
0.1054929169
0.1054929169
0.1054929169
0.1054929169
0.1054929169
0.1054929169
0.1054929169
0.1054929169
0.1054929169
0.1054929169
0.1054929169
0.1054929169
0.1054929169
0.1054929169
0.1054929169
0.1054929169
0.1054929169
0.1054929169
0.1054929169
0.1054929169
0.1054929169
0.1054929169
0.1054929169
0.1054929169
0.1054929169
0.1054929169
0.1054929169
0.1054929169
0.1054929169
0.1054929169
0.1054929169
0.1054929169
0.1054929169
0.1054929169
0.1054929169
0.1054929169
0.1054929169
0.1054929169
0.1054929169
0.1054929169
0.1054929169
0.1054929169
0.1054929169
0.1054929169
0.1054929169
0.1054929169
0.1054929169
0.1054929169
0.1054929169
0.1054929169
0.1054929169
0.1054929169
0.1054929169
0.1054929169
0.1054929169
0.1054929169
0.1054929169
0.1054929169
0.1054929169
0.1054929169
0.1054929169
0.1054929169
0.1054929169
0.1054929169
0.1054929169
0.1054929169
0.1054929169
0.1054929169
0.1054929169
0.1054929169
0.1054929169
0.1054929169
0.1054929169
0.1054929169
0.1054929169
0.1054929169
0.1054929169
0.1054929169
0.1054929169
0.1054929169
0.1054929169
0.1054929169
0.1054929169
0.1054929169
0.1054929169
0.1054929169
0.1054929169
0.1054929169
0.1054929169
0.1054929169
0.1054929169
0.1054929169
0.1054929169
0.1054929169
0.1054929169
0.1054929169
0.1054929169
0.1054929169
0.1054929169
0.1054929169
0.1054929169
0.1054929169
0.1054929169
0.1054929169
0.1054929169
0.1054929169
0.1054929169
0.1054929169
0.1054929169
0.1054929169
0.1054929169
0.1054929169
0.1054929169
0.1054929169
0.1054929169
0.1054929169
0.1054929169
0.1054929169
0.1054929169
0.1054929169
0.1054929169
0.1054929169
0.1054929169
0.1054929169
0.1054929169
0.1054929169
0.1054929169
0.1054929169
0.1054929169
0.1054929169
0.1054929169
0.1054929169
0.1054929169
0.1054929169
0.1054929169
0.1054929169
0.1054929169
0.1054929169
0.1054929169
0.1054929169
0.1054929169
0.1054929169
0.1054929169
0.1054929169
0.1054929169
0.1054929169
0.1054929169
0.1054929169
0.1054929169
0.1054929169
0.1054929169
0.1054929169
0.1054929169
0.1054929169
0.1054929169
0.1054929169
0.1054929169
0.1054929169
0.1054929169
0.1054929169
0.1054929169
0.1054929169
0.1054929169
0.1054929169
0.1054929169
0.1054929169
0.1054929169
0.1054929169
0.1054929169
0.1054929169
0.1054929169
0.1054929169
0.1054929169
0.1054929169
0.1054929169
0.1054929169
0.1054929169
0.1054929169
0.1054929169
0.1054929169
0.1054929169
0.1054929169
0.1054929169
0.1054929169
0.1054929169
0.1054929169
0.1054929169
0.1054929169
0.1054929169
0.1054929169
0.1054929169
0.1054929169
0.1054929169
0.1054929169
0.1054929169
0.1054929169
0.1054929169
0.1054929169
0.1054929169
0.1054929169
0.1054929169
0.1054929169
0.1054929169
0.1054929169
0.1054929169
0.1054929169
0.1054929169
0.1054929169
0.1054929169
0.1054929169
0.1054929169
0.1054929169
0.1054929169
0.1054929169
0.1054929169
0.1054929169
0.1054929169
0.1054929169
0.1054929169
0.1054929169
0.1054929169
0.1054929169
0.1054929169
0.1054929169
0.1054929169
0.1054929169
0.1054929169
0.1054929169
0.1054929169
0.1054929169
0.1054929169
0.1054929169
0.1054929169
0.1054929169
0.1054929169
0.1054929169
0.1054929169
0.1054929169
0.1054929169
0.1054929169
0.1054929169
0.1054929169
0.1054929169
0.1054929169
0.1054929169
0.1054929169
0.1054929169
0.1054929169
0.1054929169
0.1054929169
0.1054929169
0.1054929169
0.1054929169
0.1054929169
0.1054929169
0.1054929169
0.1054929169
0.1054929169
0.1054929169
0.1054929169
0.1054929169
0.1054929169
0.1054929169
0.1054929169
0.1054929169
0.1054929169
0.1054929169
0.1054929169
0.1054929169
0.1054929169
0.1054929169
0.1054929169
0.1054929169
0.1054929169
0.1054929169
0.1054929169
0.1054929169
0.1054929169
0.1054929169
0.1054929169
0.1054929169
0.1054929169
0.1054929169
0.1054929169
0.1054929169
0.1054929169
0.1054929169
0.1054929169
0.1054929169
0.1054929169
0.1054929169
0.1054929169
0.1054929169
0.1054929169
0.1054929169
0.1054929169
0.1054929169
0.1054929169
0.1054929169
0.1054929169
0.1054929169
0.1054929169
0.1054929169
0.1054929169
0.1054929169
0.1054929169
0.1054929169
0.1054929169
0.1054929169
0.1054929169
0.1054929169
0.1054929169
0.1054929169
0.1054929169
0.1054929169
0.1054929169
0.1054929169
0.1054929169
0.1054929169
0.1054929169
0.1054929169
0.1054929169
0.1054929169
0.1054929169
0.1054929169
0.1054929169
0.1054929169
0.1054929169
0.1054929169
0.1054929169
0.1054929169
0.1054929169
0.1054929169
0.1054929169
0.1054929169
0.1054929169
0.1054929169
0.1054929169
0.1054929169
0.1054929169
0.1054929169
0.1054929169
0.1054929169
0.1054929169
0.1054929169
0.1054929169
0.1054929169
0.1054929169
0.1054929169
0.1054929169
0.1054929169
0.1054929169
0.1054929169
0.1054929169
0.1054929169
0.1054929169
0.1054929169
0.1054929169
0.1054929169
0.1054929169
0.1054929169
0.1054929169
0.1054929169
0.1054929169
0.1054929169
0.1054929169
0.1054929169
0.1054929169
0.1054929169
0.1054929169
0.1054929169
0.1054929169
0.1054929169
0.1054929169
0.1054929169
0.1054929169
0.1054929169
0.1054929169
0.1054929169
0.1054929169
0.1054929169
0.1054929169
0.1054929169
0.1054929169
0.1054929169
0.1054929169
0.1054929169
0.1054929169
0.1054929169
0.1054929169
0.1054929169
0.1054929169
0.1054929169
0.1054929169
0.1054929169
0.1054929169
0.1054929169
0.1054929169
0.1054929169
0.1054929169
0.1054929169
0.1054929169
0.1054929169
0.1054929169
0.1054929169
0.1054929169
0.1054929169
0.1054929169
0.1054929169
0.1054929169
0.1054929169
0.1054929169
0.1054929169
0.1054929169
0.1054929169
0.1054929169
0.1054929169
0.1054929169
0.1054929169
0.1054929169
0.1054929169
0.1054929169
0.1054929169
0.1054929169
0.1054929169
0.1054929169
0.1054929169
0.1054929169
0.1054929169
0.1054929169
0.1054929169
0.1054929169
0.1054929169
0.1054929169
0.1054929169
0.1054929169
0.1054929169
0.1054929169
0.1054929169
0.1054929169
0.1054929169
0.1054929169
0.1054929169
0.1054929169
0.1054929169
0.1054929169
0.1054929169
0.1054929169
0.1054929169
0.1054929169
0.1054929169
0.1054929169
0.1054929169
0.1054929169
0.1054929169
0.1054929169
0.1054929169
0.1054929169
0.1054929169
0.1054929169
0.1054929169
0.1054929169
0.1054929169
0.1054929169
0.1054929169
0.1054929169
0.1054929169
0.1054929169
0.1054929169
0.1054929169
0.1054929169
0.1054929169
0.1054929169
0.1054929169
0.1054929169
0.1054929169
0.1054929169
0.1054929169
0.1054929169
0.1054929169
0.1054929169
0.1054929169
0.1054929169
0.1054929169
0.1054929169
0.1054929169
0.1054929169
0.1054929169
0.1054929169
0.1054929169
0.1054929169
0.1054929169
0.1054929169
0.1054929169
0.1054929169
0.1054929169
0.1054929169
0.1054929169
0.1054929169
0.1054929169
0.1054929169
0.1054929169
0.1054929169
0.1054929169
0.1054929169
0.1054929169
0.1054929169
0.1054929169
0.1054929169
0.1054929169
0.1054929169
0.1054929169
0.1054929169
0.1054929169
0.1054929169
0.1054929169
0.1054929169
0.1054929169
0.1054929169
0.1054929169
0.1054929169
0.1054929169
0.1054929169
0.1054929169
0.1054929169
0.1054929169
0.1054929169
0.1054929169
0.1054929169
0.1054929169
0.1054929169
0.1054929169
0.1054929169
0.1054929169
0.1054929169
0.1054929169
0.1054929169
0.1054929169
0.1054929169
0.1054929169
0.1054929169
0.1054929169
0.1054929169
0.1054929169
0.1054929169
0.1054929169
0.1054929169
0.1054929169
0.1054929169
0.1054929169
0.1054929169
0.1054929169
0.1054929169
0.1054929169
0.1054929169
0.1054929169
0.1054929169
0.1054929169
0.1054929169
0.1054929169
0.1054929169
0.1054929169
0.1054929169
0.1054929169
0.07365308415
0.070573648
0.07089888301
0.07644801048
0.07672791007
0.07266846063
0.07152355767
0.06954937374
0.06959857495
0.06914951998
0.06888008747
0.06868698454
0.07006471375
0.07113781779
0.07316089741
0.0722445338
0.07060372556
0.07146608557
0.07630432356
0.07779981166
0.07135786123
0.0647904718
0.06817539801
0.07709473187
0.07851865205
0.0760551633
0.07044650392
0.06849405888
0.06992880745
0.07138006709
0.07186938724
0.07193115757
0.07212723858
0.07263266666
0.07394215155
0.07254062759
0.06896513844
0.07018054316
0.07254328138
0.07405211719
0.07109343872
0.06480357525
0.07613433942
0.07873388806
0.07746050043
0.07152685578
0.06646033315
0.06308888851
0.06403125107
0.06814931836
0.06981091705
0.07076656528
0.06998009223
0.07035273905
0.07109058985
0.07024133822
0.06610375443
0.0674076012
0.07104666634
0.07306605
0.07104067004
0.07139352443
0.0767655241
0.07799140128
0.07278117172
0.06605150791
0.0613640583
0.05867809803
0.0576092394
0.06132233238
0.0678505025
0.07016787042
0.07048885192
0.07000081116
0.0698410164
0.06625244212
0.05878846685
0.06217596292
0.06912278977
0.0736913702
0.07071827791
0.07254497802
0.07619470439
0.07678036645
0.07312221074
0.0690251618
0.06433999951
0.0577617644
0.04069206194
0.05658639164
0.06670847044
0.07306962963
0.07623539863
0.07318589347
0.06977915582
0.06347731363
0.05340503804
0.0584273733
0.06639063005
0.07297934153
0.06898484757
0.06878608269
0.06971137512
0.07033191059
0.07080435469
0.07074001524
0.06966725283
0.06461107723
0.05339748205
0.06243924772
0.06932146111
0.07609020111
0.07388041445
0.06917170575
0.05712614587
0.04065835549
0.02688265352
0.02688265352
0.05372996469
0.06821159802
0.07048083109
0.07067930603
0.0703710537
0.07090422651
0.07144159729
0.07325087718
0.07312424776
0.07169503347
0.06565201457
0.06988429404
0.07615150619
0.07840878659
0.07788296665
0.07578897145
0.06687499694
0.05616717864
0.04247620904
0.02688265352
0.0543315418
0.06759140138
0.0735442663
0.07371356978
0.0740650016
0.07305706108
0.07583108854
0.07703612908
0.07657235888
0.07405496049
0.07128256593
0.07165252151
0.07615502081
0.07621862553
0.07682164763
0.07592302932
0.07321389014
0.06810711288
0.06214881859
0.05271259061
0.06783738361
0.07322085111
0.07215421355
0.07357724306
0.07601576038
0.07199129974
0.07295217323
0.07684809598
0.07596972286
0.07643750705
0.07578100101
0.07317976078
0.07223549493
0.07131588896
0.07222740992
0.07149021955
0.07389999919
0.07302707394
0.07166224508
0.0667600678
0.076388645
0.07288024621
0.06976808453
0.07344841512
0.07398958276
0.07165099607
0.07071400152
0.07275021919
0.07243198726
0.07104747372
0.06922429519
0.07081487928
0.06865147027
0.06719748095
0.07008984238
0.07022151638
0.0731572774
0.0769866861
0.07755090047
0.07688564247
0.07850955326
0.06715333029
0.06636387642
0.07131734316
0.07191036304
0.07059133492
0.07097160999
0.0698656219
0.06935911991
0.06513967907
0.05921949332
0.06682445115
0.06835657768
0.06734284054
0.06799973032
0.06611395034
0.06742183329
0.07320984359
0.07720806263
0.07835479356
0.07006284897
0.0559124065
0.07124843271
0.07031866298
0.06793431362
0.06919109448
0.07163076907
0.06869396202
0.06460794846
0.0560080055
0.04460614361
0.0665911542
0.07070531841
0.07128466208
0.06933801257
0.06748579726
0.06690807655
0.07054775475
0.07675976106
0.07806572747
0.07032926184
0.06252220934
0.06584135463
0.06096486406
0.05412794887
0.05815620758
0.06738635815
0.06655374017
0.05807341362
0.04305056465
0.02688265352
0.06654423687
0.0694763288
0.06983576493
0.06412145199
0.06334369482
0.06156259038
0.06324173924
0.07147555514
0.07247802471
0.0649126602
0.06899603768
0.07124415404
0.07127169018
0.06741822587
0.06889257959
0.07071215475
0.07187425026
0.07022709132
0.06332476208
0.04718528171
0.06924692234
0.07398183866
0.07664950131
0.07259221527
0.07098521428
0.06780297736
0.06549612845
0.06946139705
0.0699363127
0.07335930869
0.07767768142
0.07303208524
0.07576109812
0.07095845861
0.07144142737
0.07258493918
0.07322943533
0.073776748
0.06927344869
0.05503673504
0.070145491
0.07675247639
0.07642211901
0.07286615118
0.07061002162
0.06952446605
0.06912333773
0.06979580322
0.06991594116
0.07793555187
0.07806194651
0.07764298212
0.07814330518
0.07576586439
0.07232230616
0.07372386863
0.07616934423
0.07654926996
0.07141489483
0.06408093099
0.07329212699
0.07791418416
0.07665826463
0.07188782303
0.06920229426
0.06811767996
0.07072504037
0.07106110493
0.07385648164
0.07717864795
0.06757118104
0.07891202308
0.07844449418
0.07691435535
0.07319187186
0.07311238806
0.07273416984
0.07370872666
0.07277039891
0.06872864557
0.0763977929
0.07660172383
0.07391793323
0.07254686829
0.06930086763
0.06885870163
0.07272013705
0.07324016464
0.07395127624
0.06770806558
0.0509598705
0.07974255851
0.07855175171
0.0760166485
0.0707994255
0.07045693639
0.07121746491
0.07238908371
0.07361647343
0.07249690686
0.07688773385
0.07312540806
0.07097991531
0.07151415876
0.0686683876
0.06821712279
0.0727423044
0.07281734206
0.07035405303
0.05823862839
0.02688265352
0.078406439
0.07645951386
0.07180286771
0.06901246819
0.06766661035
0.07043208204
0.07404066337
0.07647924458
0.07310960424
0.07275651375
0.07063607543
0.07031286628
0.07262032561
0.07033548979
0.07203220161
0.07719475094
0.07700508423
0.07733128368
0.07048472527
0.05687733606
0.07602392753
0.07312848462
0.06962894112
0.06834987635
0.067344237
0.06942433473
0.07586166267
0.07648783327
0.07385502692
0.0713675295
0.07127448666
0.07169062182
0.07670475073
0.0737364086
0.07596883122
0.07785780954
0.07750740753
0.07887673868
0.07791960141
0.06904888763
0.05632289645
0.04793483617
0.04605925525
0.05406131137
0.05156344413
0.04832380947
0.04521074302
0.04199532192
0.04206036906
0.04443766498
0.04671476821
0.04819796037
0.04928920575
0.05003054272
0.05231838494
0.05159015178
0.04478849859
0.04592902033
0.05195128257
0.05440772181
0.0529305661
0.02688265352
0.02688265352
0.05547488258
0.05175212215
0.04504953376
0.03784263715
0.03431044652
0.03509701316
0.03942031239
0.04541574104
0.04941673242
0.05157963724
0.05272463848
0.05441011624
0.04991571163
0.03736129941
0.03841601595
0.04747396311
0.05222044885
0.04915506198
0.02688265352
0.05279470984
0.05356842502
0.04567848396
0.03614166001
0.02688265352
0.02688265352
0.02688265352
0.02706950783
0.03866500362
0.04610822147
0.04950501216
0.0512321856
0.05104036376
0.04502425255
0.02688265352
0.02688265352
0.04311063275
0.05057080471
0.0532833833
0.04949031797
0.05477870812
0.04984461058
0.0392211341
0.02688265352
0.02688265352
0.02688265352
0.02688265352
0.02688265352
0.03412716812
0.04439140203
0.0501063143
0.05160559207
0.04849451681
0.04063015189
0.02688265352
0.02688265352
0.04086488807
0.05011186105
0.0537800835
0.05427209313
0.05459354217
0.0515847127
0.04544547973
0.03716350746
0.02699082488
0.02688265352
0.02688265352
0.02688265352
0.03450084454
0.04753025626
0.05495853664
0.05320255546
0.04639108414
0.03735179182
0.02688265352
0.02688265352
0.03915014913
0.04919735462
0.05086095498
0.04966041077
0.04952179932
0.04963025873
0.0483811642
0.04614457697
0.04154785757
0.0351470024
0.02688265352
0.03095536024
0.04208423891
0.05332957708
0.05507230896
0.04372224196
0.03059612355
0.02688265352
0.02688265352
0.02688265352
0.02688265352
0.04140757354
0.05266422525
0.05162416899
0.05060010702
0.05083508126
0.0516455234
0.05229903464
0.05020181321
0.04597174819
0.04011511523
0.04386453122
0.05177880746
0.05825807695
0.05771300985
0.05099774911
0.03903287803
0.02688265352
0.02688265352
0.02688265352
0.02688265352
0.041936737
0.05400865991
0.05434314563
0.05323201888
0.05170375602
0.05338410864
0.05506136448
0.05467293883
0.05267689804
0.05078788989
0.05179009291
0.05506736224
0.05527237382
0.05654152371
0.05533887949
0.04976793129
0.04090379359
0.03490283636
0.02688265352
0.04049750324
0.05069669185
0.05088380387
0.05467131594
0.05263197577
0.05005701917
0.05190423081
0.05511900012
0.05381399809
0.05192721886
0.04877807834
0.04867014244
0.05050606748
0.04935635604
0.05093982204
0.05274291208
0.05447988685
0.05097817808
0.0470478052
0.04294357384
0.05286926638
0.05173031986
0.05001753367
0.05422947917
0.05081631374
0.04782381491
0.04901591896
0.05171362284
0.04945124138
0.04413513113
0.0383558072
0.04080473386
0.04585281788
0.0463263412
0.0489961044
0.05035203948
0.0541409698
0.0565441496
0.05499828868
0.05497781117
0.05859908617
0.03820924097
0.0512732695
0.05064003032
0.0466439192
0.0441560847
0.04736340503
0.04755807574
0.04396489492
0.03455420643
0.02688265352
0.02985077918
0.0433406701
0.04574381102
0.04681459143
0.04658194279
0.04774938827
0.05303383659
0.05682131177
0.05842039816
0.04699958779
0.02688265352
0.04952866357
0.04384183519
0.03853661626
0.03717579701
0.0429717822
0.04243299685
0.03762990115
0.02688265352
0.02688265352
0.02688265352
0.04369543801
0.04642409483
0.04517131766
0.04432385849
0.04467827424
0.04834097898
0.0546831437
0.05501920787
0.04660669739
0.03893154439
0.03200327899
0.02688265352
0.02688265352
0.02688265352
0.02688265352
0.0293015042
0.02987301509
0.02688265352
0.02688265352
0.02688265352
0.02718194066
0.02688265352
0.02688265352
0.02688265352
0.02788855814
0.03576584813
0.04799034696
0.03370157261
0.02688265352
0.04502253944
0.04367431322
0.03916897296
0.03390820252
0.0382444676
0.04439196465
0.04676920044
0.04316114035
0.02688265352
0.02688265352
0.02785442594
0.04230287444
0.04481381665
0.04298231357
0.04282491295
0.04304294794
0.04371204784
0.04842233664
0.03698909994
0.04804737102
0.05444660119
0.04953872338
0.0476964313
0.04345474765
0.04556466273
0.04938968485
0.05077953727
0.04727514379
0.03353915925
0.02688265352
0.03608173699
0.04699099536
0.04913717606
0.04805269943
0.04778942909
0.04790287763
0.04801730034
0.04875411437
0.04378569338
0.05367676854
0.0566529216
0.05414014446
0.05391941193
0.05028473884
0.04971450324
0.0522374247
0.05312068987
0.05086897651
0.04203399459
0.02747662925
0.04461235592
0.05203018418
0.05213890007
0.04999149293
0.0485392712
0.0474207948
0.04913626994
0.04992286398
0.05161395336
0.05538248806
0.04711861812
0.05760663047
0.05722268708
0.05408232017
0.05189534305
0.05217985868
0.05247379826
0.0518928526
0.04710888943
0.03738582637
0.05071483734
0.05441927311
0.05376237522
0.05161016838
0.04852934895
0.04709015029
0.04981205822
0.05195000528
0.05230253159
0.0435884401
0.02688265352
0.05921294803
0.05797178131
0.05362252945
0.04999658717
0.04968650572
0.05049964029
0.05146252655
0.05012287362
0.04592877268
0.05424015513
0.05318996719
0.05054553795
0.0484500874
0.04502365743
0.04413636291
0.04882229818
0.051883527
0.0510879948
0.02688265352
0.02688265352
0.05712286275
0.0550540052
0.05022218575
0.04623758242
0.04577104797
0.04873917856
0.05232490969
0.05188635497
0.04958531494
0.04782152157
0.04825225758
0.04735931313
0.04783433595
0.04526921705
0.04718809122
0.05135430192
0.05324071505
0.05431937394
0.0463893181
0.02688265352
0.05398158575
0.05151330863
0.04609153058
0.04310361178
0.04280953065
0.0462633188
0.05113129532
0.0504716991
0.05017301787
0.04567201698
0.04813850246
0.04882982679
0.05045584918
0.04739025861
0.04874150212
0.052411589
0.05368830373
0.05502227206
0.05508178187
0.04777770578
0.04694509039
0.03891998648
0.03723879501
0.04272516771
0.03955440716
0.03641558526
0.03359109267
0.03085905868
0.03078232115
0.03350721818
0.03610397486
0.03807533836
0.03825513167
0.0383149634
0.03969887142
0.04134819955
0.03533400634
0.03625001468
0.04066844189
0.04348486969
0.02731728998
0.02688265352
0.0345028771
0.04356041324
0.03752579499
0.03170940427
0.02698446301
0.02688265352
0.02688265352
0.02886695444
0.03285758764
0.03749514244
0.04047185027
0.04202189968
0.04376837956
0.03890780087
0.02688265352
0.02688265352
0.03386224162
0.0394472346
0.02688265352
0.02981893655
0.04232047166
0.03931153554
0.03111015159
0.02688265352
0.02688265352
0.02688265352
0.02688265352
0.02688265352
0.02688265352
0.03373594953
0.03852602336
0.04092275099
0.04032926766
0.03292815069
0.02743229822
0.02688265352
0.02752121705
0.03739326741
0.04364672375
0.04155907396
0.04235097876
0.03508022441
0.02688265352
0.02688265352
0.02688265352
0.02688265352
0.02688265352
0.02688265352
0.02690993631
0.03295832402
0.03964742755
0.04250570584
0.03769488484
0.02688265352
0.02688265352
0.02688265352
0.02688265352
0.03736728848
0.04544562977
0.04451083038
0.042611973
0.03768652615
0.03109705684
0.02688265352
0.02688265352
0.02688265352
0.02688265352
0.02688265352
0.02688265352
0.0361348479
0.04442844283
0.04344486346
0.03550686895
0.02688265352
0.02688265352
0.02692177681
0.02688265352
0.03760295369
0.04306166166
0.04076515681
0.03991725085
0.03970307936
0.03712043125
0.03448389452
0.03012150009
0.02688265352
0.02688265352
0.02688265352
0.03233293044
0.042691654
0.04662515728
0.03462039058
0.02688265352
0.02688265352
0.02688265352
0.02805645896
0.02688265352
0.03286444608
0.04460754357
0.04252691083
0.04083989931
0.04130363623
0.04247767638
0.0422090655
0.0388389362
0.0362641169
0.03268375166
0.0369921827
0.04196526063
0.04847993038
0.04880962659
0.03940909832
0.02781229166
0.02688265352
0.02688265352
0.02704892419
0.02688265352
0.03412239108
0.0450965315
0.04384076093
0.04066911434
0.03971634935
0.04205892321
0.04483208859
0.04441774322
0.04263322485
0.04093548908
0.04195265682
0.04448889878
0.0442322993
0.04616171136
0.04563599524
0.03758364723
0.02937787759
0.02688265352
0.02688265352
0.03090287157
0.04137936559
0.04360814513
0.04375005146
0.03862147205
0.03694780318
0.03978229078
0.04391004208
0.04244762504
0.0394101654
0.03552488136
0.03499729199
0.03810551897
0.03722695566
0.03961383999
0.04301392985
0.04550723514
0.04025127508
0.03602560014
0.03348363172
0.0418281707
0.03996628055
0.0430189191
0.04262438027
0.03650931185
0.03410223315
0.03675921994
0.04035164314
0.03797951772
0.03215306133
0.02688265352
0.02688265352
0.03318621551
0.03462608044
0.03711951713
0.03978915615
0.04397340289
0.04665931205
0.0443516463
0.04470244265
0.04653479543
0.02688265352
0.04298169629
0.03878613077
0.03312137918
0.03052266276
0.03360350341
0.03588931693
0.03361804779
0.02688265352
0.02688265352
0.02688265352
0.028050902
0.03213763995
0.03365747482
0.03568228932
0.03779903497
0.04133039118
0.04614083579
0.04801257784
0.03618082023
0.02688265352
0.03805395006
0.0308577283
0.02688265352
0.02688265352
0.02713081773
0.03115156902
0.02969868928
0.02688265352
0.02713956544
0.02688265352
0.02688265352
0.02689439095
0.02688265352
0.03069275259
0.03390729994
0.03716942925
0.04375708721
0.04580016501
0.0365298412
0.02688265352
0.02688265352
0.02688265352
0.02688265352
0.02688265352
0.02688265352
0.02688265352
0.02688265352
0.02707835862
0.02827363945
0.02688265352
0.02688265352
0.02688265352
0.02688265352
0.02688265352
0.02688265352
0.02688265352
0.03593212563
0.03056542155
0.02688265352
0.03334745434
0.02990140392
0.02688265352
0.02688265352
0.02688265352
0.02697540916
0.03001437462
0.02688265352
0.02688265352
0.02778181445
0.02688265352
0.02688265352
0.02688265352
0.02688265352
0.02756702339
0.03008556055
0.03238643132
0.03794529762
0.02752909192
0.02688265352
0.04114923985
0.03591293964
0.03292015193
0.03004511623
0.03136407977
0.03471566429
0.03583006748
0.03322911714
0.02688265352
0.02688265352
0.02688265352
0.0306823359
0.03198868449
0.03223413044
0.0340253305
0.03601643158
0.03743528197
0.03923146242
0.03328842313
0.03888615222
0.0454544754
0.04080579055
0.03874395037
0.03541485524
0.0352633499
0.03800116607
0.03839444517
0.03642134376
0.02705741938
0.02688265352
0.03083474968
0.03648933693
0.03706963205
0.03628135176
0.03719939925
0.03767987233
0.03901154134
0.03974397652
0.03971271431
0.04235978424
0.03787264558
0.04528378052
0.04345457808
0.03998359261
0.03869241993
0.03963839276
0.03955597333
0.03822419022
0.03155771544
0.02688265352
0.0365453188
0.0414680707
0.04180733777
0.04040015993
0.03914742388
0.03791765922
0.03872195057
0.04061333955
0.04168929775
0.0314696211
0.02688265352
0.0477904374
0.04575507261
0.04134209585
0.03895752949
0.03867332989
0.03852206937
0.03902813458
0.03577709478
0.03228062936
0.0418612101
0.04249439608
0.04077793786
0.03806003706
0.03473891416
0.03253380422
0.03442841205
0.03902930909
0.04018939557
0.02688265352
0.02688265352
0.04659977562
0.0441828735
0.03915919527
0.0359922675
0.03571798501
0.03748857803
0.03999118824
0.03809878628
0.03486232924
0.03114373445
0.03594766103
0.03523721328
0.03366597128
0.03096217654
0.03133079853
0.03452335509
0.03838737516
0.04148902408
0.03663077262
0.02946188601
0.04345598986
0.03970675421
0.03385103219
0.03100751081
0.03151981167
0.03506744365
0.03941609221
0.03807874451
0.03563343558
0.02728687843
0.03427518443
0.03521728562
0.03475801114
0.03190866654
0.03260962447
0.03583565064
0.03753756011
0.03858540698
0.04207891742
0.04008725391
0.04029867612
0.0330276241
0.03205625956
0.03553374355
0.03301634875
0.03116953248
0.02947043293
0.02709260776
0.02688265352
0.02912820421
0.03099591333
0.03283450998
0.03258388795
0.03235967709
0.03304445283
0.03496440834
0.03179294669
0.0321701648
0.0360161484
0.03780084854
0.02688265352
0.0278329095
0.0319304751
0.03589356133
0.030576806
0.02688265352
0.02688265352
0.02688265352
0.02688265352
0.02688265352
0.02845231867
0.03170533945
0.03479331724
0.03659122267
0.0384305497
0.03420043195
0.0293481133
0.02775764263
0.02790183764
0.03394029435
0.02688265352
0.02835051574
0.03446889456
0.03161145018
0.02688265352
0.02688265352
0.02688265352
0.02688265352
0.02688265352
0.02688265352
0.02688265352
0.02773048019
0.03236140323
0.03550093023
0.03542609329
0.02702439379
0.02706420441
0.02695096232
0.02688265352
0.03192581556
0.0358939158
0.03420870975
0.03328295984
0.02744786115
0.02688265352
0.02688265352
0.02688265352
0.02688265352
0.02688265352
0.02697320794
0.02688265352
0.02688265352
0.03285993658
0.03703771687
0.03253504838
0.02688265352
0.02688265352
0.02688265352
0.02688265352
0.03180328992
0.03875446137
0.03677405242
0.03432619711
0.03043748173
0.02688265352
0.02688265352
0.02688265352
0.02688265352
0.02688265352
0.02688265352
0.02688265352
0.02765537174
0.0364045788
0.03721583017
0.02936642288
0.02688265352
0.02693032016
0.02701875498
0.02688265352
0.03286603889
0.03753970007
0.03453520334
0.03372887076
0.0343563232
0.03244901588
0.03041481551
0.02750945322
0.02689654867
0.02688265352
0.02695219434
0.02738418673
0.0357293654
0.04137048669
0.03149701563
0.02688265352
0.02688265352
0.02690908767
0.02722134026
0.02688265352
0.02969389729
0.03942913651
0.03623240308
0.03432844333
0.03522025618
0.03674900413
0.03754618616
0.03463979896
0.0321278069
0.02920202995
0.03311718737
0.03653380333
0.04205445395
0.04372407893
0.0356486458
0.02688265352
0.02688265352
0.02688265352
0.02688265352
0.02688265352
0.03012404165
0.03947518976
0.03630172187
0.03249796393
0.03210355037
0.03436344895
0.03842852116
0.03835213049
0.03667292758
0.03457762879
0.03565502871
0.03725989314
0.03691683125
0.03891613657
0.03909829959
0.03380983693
0.02688265352
0.02688265352
0.02710851592
0.02912884841
0.03637707217