/*--------------------------------*- C++ -*----------------------------------*\
  =========                 |
  \\      /  F ield         | OpenFOAM: The Open Source CFD Toolbox
   \\    /   O peration     | Website:  https://openfoam.org
    \\  /    A nd           | Version:  7
     \\/     M anipulation  |
\*---------------------------------------------------------------------------*/
FoamFile
{
    version     2.0;
    format      ascii;
    class       volScalarField;
    location    "60";
    object      muavg;
}
// * * * * * * * * * * * * * * * * * * * * * * * * * * * * * * * * * * * * * //

dimensions      [1 -1 -1 0 0 0 0];

internalField   nonuniform List<scalar> 
16320
(
6.043789025e-05
6.043789025e-05
6.043789025e-05
6.043789025e-05
6.043789025e-05
6.043789025e-05
6.043789025e-05
6.043789025e-05
6.043789025e-05
6.043789025e-05
6.043789025e-05
6.043789025e-05
6.043789025e-05
6.043789025e-05
6.043789025e-05
6.043789025e-05
6.043789025e-05
6.043789025e-05
6.043789025e-05
6.043789025e-05
6.043789025e-05
6.043789025e-05
6.043789025e-05
6.043789025e-05
6.043789025e-05
6.043789025e-05
6.043789025e-05
6.043789025e-05
6.043789025e-05
6.043789025e-05
6.043789025e-05
6.043789025e-05
6.043789025e-05
6.043789025e-05
6.043789025e-05
6.043789025e-05
6.043789025e-05
6.043789025e-05
6.043789025e-05
6.043789025e-05
6.043789025e-05
6.043789025e-05
6.043789025e-05
6.043789025e-05
6.043789025e-05
6.043789025e-05
6.043789025e-05
6.043789025e-05
6.043789025e-05
6.043789025e-05
6.043789025e-05
6.043789025e-05
6.043789025e-05
6.043789025e-05
6.043789025e-05
6.043789025e-05
6.043789025e-05
6.043789025e-05
6.043789025e-05
6.043789025e-05
6.043789025e-05
6.043789025e-05
6.043789025e-05
6.043789025e-05
6.043789025e-05
6.043789025e-05
6.043789025e-05
6.043789025e-05
6.043789025e-05
6.043789025e-05
6.043789025e-05
6.043789025e-05
6.043789025e-05
6.043789025e-05
6.043789025e-05
6.043789025e-05
6.043789025e-05
6.043789025e-05
6.043789025e-05
6.043789025e-05
6.043789025e-05
6.043789025e-05
6.043789025e-05
6.043789025e-05
6.043789025e-05
6.043789025e-05
6.043789025e-05
6.043789025e-05
6.043789025e-05
6.043789025e-05
6.043789025e-05
6.043789025e-05
6.043789025e-05
6.043789025e-05
6.043789025e-05
6.043789025e-05
6.043789025e-05
6.043789025e-05
6.043789025e-05
6.043789025e-05
6.043789025e-05
6.043789025e-05
6.043789025e-05
6.043789025e-05
6.043789025e-05
6.043789025e-05
6.043789025e-05
6.043789025e-05
6.043789025e-05
6.043789025e-05
6.043789025e-05
6.043789025e-05
6.043789025e-05
6.043789025e-05
6.043789025e-05
6.043789025e-05
6.043789025e-05
6.043789025e-05
6.043789025e-05
6.043789025e-05
6.043789025e-05
6.043789025e-05
6.043789025e-05
6.043789025e-05
6.043789025e-05
6.043789025e-05
6.043789025e-05
6.043789025e-05
6.043789025e-05
6.043789025e-05
6.043789025e-05
6.043789025e-05
6.043789025e-05
6.043789025e-05
6.043789025e-05
6.043789025e-05
6.043789025e-05
6.043789025e-05
6.043789025e-05
6.043789025e-05
6.043789025e-05
6.043789025e-05
6.043789025e-05
6.043789025e-05
6.043789025e-05
6.043789025e-05
6.043789025e-05
6.043789025e-05
6.043789025e-05
6.043789025e-05
6.043789025e-05
6.043789025e-05
6.043789025e-05
6.043789025e-05
6.043789025e-05
6.043789025e-05
6.043789025e-05
6.043789025e-05
6.043789025e-05
6.043789025e-05
6.043789025e-05
6.043789025e-05
6.043789025e-05
6.043789025e-05
6.043789025e-05
6.043789025e-05
6.043789025e-05
6.043789025e-05
6.043789025e-05
6.043789025e-05
6.043789025e-05
6.043789025e-05
6.043789025e-05
6.043789025e-05
6.043789025e-05
6.043789025e-05
6.043789025e-05
6.043789025e-05
6.043789025e-05
6.043789025e-05
6.043789025e-05
6.043789025e-05
6.043789025e-05
6.043789025e-05
6.043789025e-05
6.043789025e-05
6.043789025e-05
6.043789025e-05
6.043789025e-05
6.043789025e-05
6.043789025e-05
6.043789025e-05
6.043789025e-05
6.043789025e-05
6.043789025e-05
6.043789025e-05
6.043789025e-05
6.043789025e-05
6.043789025e-05
6.043789025e-05
6.043789025e-05
6.043789025e-05
6.043789025e-05
6.043789025e-05
6.043789025e-05
6.043789025e-05
6.043789025e-05
6.043789025e-05
6.043789025e-05
6.043789025e-05
6.043789025e-05
6.043789025e-05
6.043789025e-05
6.043789025e-05
6.043789025e-05
6.043789025e-05
6.043789025e-05
6.043789025e-05
6.043789025e-05
6.043789025e-05
6.043789025e-05
6.043789025e-05
6.043789025e-05
6.043789025e-05
6.043789025e-05
6.043789025e-05
6.043789025e-05
6.043789025e-05
6.043789025e-05
6.043789025e-05
6.043789025e-05
6.043789025e-05
6.043789025e-05
6.043789025e-05
6.043789025e-05
6.043789025e-05
6.043789025e-05
6.043789025e-05
6.043789025e-05
6.043789025e-05
6.043789025e-05
6.043789025e-05
6.043789025e-05
6.043789025e-05
6.043789025e-05
6.043789025e-05
6.043789025e-05
6.043789025e-05
6.043789025e-05
6.043789025e-05
6.043789025e-05
6.043789025e-05
6.043789025e-05
6.043789025e-05
6.043789025e-05
6.043789025e-05
6.043789025e-05
6.043789025e-05
6.043789025e-05
6.043789025e-05
6.043789025e-05
6.043789025e-05
6.043789025e-05
6.043789025e-05
6.043789025e-05
6.043789025e-05
6.043789025e-05
6.043789025e-05
6.043789025e-05
6.043789025e-05
6.043789025e-05
6.043789025e-05
6.043789025e-05
6.043789025e-05
6.043789025e-05
6.043789025e-05
6.043789025e-05
6.043789025e-05
6.043789025e-05
6.043789025e-05
6.043789025e-05
6.043789025e-05
6.043789025e-05
6.043789025e-05
6.043789025e-05
6.043789025e-05
6.043789025e-05
6.043789025e-05
6.043789025e-05
6.043789025e-05
6.043789025e-05
6.043789025e-05
6.043789025e-05
6.043789025e-05
6.043789025e-05
6.043789025e-05
6.043789025e-05
6.043789025e-05
6.043789025e-05
6.043789025e-05
6.043789025e-05
6.043789025e-05
6.043789025e-05
6.043789025e-05
6.043789025e-05
6.043789025e-05
6.043789025e-05
6.043789025e-05
6.043789025e-05
6.043789025e-05
6.043789025e-05
6.043789025e-05
6.043789025e-05
6.043789025e-05
6.043789025e-05
6.043789025e-05
6.043789025e-05
6.043789025e-05
6.043789025e-05
6.043789025e-05
6.043789025e-05
6.043789025e-05
6.043789025e-05
6.043789025e-05
6.043789025e-05
6.043789025e-05
6.043789025e-05
6.043789025e-05
6.043789025e-05
6.043789025e-05
6.043789025e-05
6.043789025e-05
6.043789025e-05
6.043789025e-05
6.043789025e-05
6.043789025e-05
6.043789025e-05
6.043789025e-05
6.043789025e-05
6.043789025e-05
6.043789025e-05
6.043789025e-05
6.043789025e-05
6.043789025e-05
6.043789025e-05
6.043789025e-05
6.043789025e-05
6.043789025e-05
6.043789025e-05
6.043789025e-05
6.043789025e-05
6.043789025e-05
6.043789025e-05
6.043789025e-05
6.043789025e-05
6.043789025e-05
6.043789025e-05
6.043789025e-05
6.043789025e-05
6.043789025e-05
6.043789025e-05
6.043789025e-05
6.043789025e-05
6.043789025e-05
6.043789025e-05
6.043789025e-05
6.043789025e-05
6.043789025e-05
6.043789025e-05
6.043789025e-05
6.043789025e-05
6.043789025e-05
6.043789025e-05
6.043789025e-05
6.043789025e-05
6.043789025e-05
6.043789025e-05
6.043789025e-05
6.043789025e-05
6.043789025e-05
6.043789025e-05
6.043789025e-05
6.043789025e-05
6.043789025e-05
6.043789025e-05
6.043789025e-05
6.043789025e-05
6.043789025e-05
6.043789025e-05
6.043789025e-05
6.043789025e-05
6.043789025e-05
6.043789025e-05
6.043789025e-05
6.043789025e-05
6.043789025e-05
6.043789025e-05
6.043789025e-05
6.043789025e-05
6.043789025e-05
6.043789025e-05
6.043789025e-05
6.043789025e-05
6.043789025e-05
6.043789025e-05
6.043789025e-05
6.043789025e-05
6.043789025e-05
6.043789025e-05
6.043789025e-05
6.043789025e-05
6.043789025e-05
6.043789025e-05
6.043789025e-05
6.043789025e-05
6.043789025e-05
6.043789025e-05
6.043789025e-05
6.043789025e-05
6.043789025e-05
6.043789025e-05
6.043789025e-05
6.043789025e-05
6.043789025e-05
6.043789025e-05
6.043789025e-05
6.043789025e-05
6.043789025e-05
6.043789025e-05
6.043789025e-05
6.043789025e-05
6.043789025e-05
6.043789025e-05
6.043789025e-05
6.043789025e-05
6.043789025e-05
6.043789025e-05
6.043789025e-05
6.043789025e-05
6.043789025e-05
6.043789025e-05
6.043789025e-05
6.043789025e-05
6.043789025e-05
6.043789025e-05
6.043789025e-05
6.043789025e-05
6.043789025e-05
6.043789025e-05
6.043789025e-05
6.043789025e-05
6.043789025e-05
6.043789025e-05
6.043789025e-05
6.043789025e-05
6.043789025e-05
6.043789025e-05
6.043789025e-05
6.043789025e-05
6.043789025e-05
6.043789025e-05
6.043789025e-05
6.043789025e-05
6.043789025e-05
6.043789025e-05
6.043789025e-05
6.043789025e-05
6.043789025e-05
6.043789025e-05
6.043789025e-05
6.043789025e-05
6.043789025e-05
6.043789025e-05
6.043789025e-05
6.043789025e-05
6.043789025e-05
6.043789025e-05
6.043789025e-05
6.043789025e-05
6.043789025e-05
6.043789025e-05
6.043789025e-05
6.043789025e-05
6.043789025e-05
6.043789025e-05
6.043789025e-05
6.043789025e-05
6.043789025e-05
6.043789025e-05
6.043789025e-05
6.043789025e-05
6.043789025e-05
6.043789025e-05
6.043789025e-05
6.043789025e-05
6.043789025e-05
6.043789025e-05
6.043789025e-05
6.043789025e-05
6.043789025e-05
6.043789025e-05
6.043789025e-05
6.043789025e-05
6.043789025e-05
6.043789025e-05
6.043789025e-05
6.043789025e-05
6.043789025e-05
6.043789025e-05
6.043789025e-05
6.043789025e-05
6.043789025e-05
6.043789025e-05
6.043789025e-05
6.043789025e-05
6.043789025e-05
6.043789025e-05
6.043789025e-05
6.043789025e-05
6.043789025e-05
6.043789025e-05
6.043789025e-05
6.043789025e-05
6.043789025e-05
6.043789025e-05
6.043789025e-05
6.043789025e-05
6.043789025e-05
6.043789025e-05
6.043789025e-05
6.043789025e-05
6.043789025e-05
6.043789025e-05
6.043789025e-05
6.043789025e-05
6.043789025e-05
6.043789025e-05
6.043789025e-05
6.043789025e-05
6.043789025e-05
6.043789025e-05
6.043789025e-05
6.043789025e-05
6.043789025e-05
6.043789025e-05
6.043789025e-05
6.043789025e-05
6.043789025e-05
6.043789025e-05
6.043789025e-05
6.043789025e-05
6.043789025e-05
6.043789025e-05
6.043789025e-05
6.043789025e-05
6.043789025e-05
6.043789025e-05
6.043789025e-05
6.043789025e-05
6.043789025e-05
6.043789025e-05
6.043789025e-05
6.043789025e-05
6.043789025e-05
6.043789025e-05
6.043789025e-05
6.043789025e-05
6.043789025e-05
6.043789025e-05
6.043789025e-05
6.043789025e-05
6.043789025e-05
6.043789025e-05
6.043789025e-05
6.043789025e-05
6.043789025e-05
6.043789025e-05
6.043789025e-05
6.043789025e-05
6.043789025e-05
6.043789025e-05
6.043789025e-05
6.043789025e-05
6.043789025e-05
6.043789025e-05
6.043789025e-05
6.043789025e-05
6.043789025e-05
6.043789025e-05
6.043789025e-05
6.043789025e-05
6.043789025e-05
6.043789025e-05
6.043789025e-05
6.043789025e-05
6.043789025e-05
6.043789025e-05
6.043789025e-05
6.043789025e-05
6.043789025e-05
6.043789025e-05
6.043789025e-05
6.043789025e-05
6.043789025e-05
6.043789025e-05
6.043789025e-05
6.043789025e-05
6.043789025e-05
6.043789025e-05
6.043789025e-05
6.043789025e-05
6.043789025e-05
6.043789025e-05
6.043789025e-05
6.043789025e-05
6.043789025e-05
6.043789025e-05
6.043789025e-05
6.043789025e-05
6.043789025e-05
6.043789025e-05
6.043789025e-05
6.043789025e-05
6.043789025e-05
6.043789025e-05
6.043789025e-05
6.043789025e-05
6.043789025e-05
6.043789025e-05
6.043789025e-05
6.043789025e-05
6.043789025e-05
6.043789025e-05
6.043789025e-05
6.043789025e-05
6.043789025e-05
6.043789025e-05
6.043789025e-05
6.043789025e-05
6.043789025e-05
6.043789025e-05
6.043789025e-05
6.043789025e-05
6.043789025e-05
6.043789025e-05
6.043789025e-05
6.043789025e-05
6.043789025e-05
6.043789025e-05
6.043789025e-05
6.043789025e-05
6.043789025e-05
6.043789025e-05
6.043789025e-05
6.043789025e-05
6.043789025e-05
6.043789025e-05
6.043789025e-05
6.043789025e-05
6.043789025e-05
6.043789025e-05
6.043789025e-05
6.043789025e-05
6.043789025e-05
6.043789025e-05
6.043789025e-05
6.043789025e-05
6.043789025e-05
6.043789025e-05
6.043789025e-05
6.043789025e-05
6.043789025e-05
6.043789025e-05
6.043789025e-05
6.043789025e-05
6.043789025e-05
6.043789025e-05
6.043789025e-05
6.043789025e-05
6.043789025e-05
6.043789025e-05
6.043789025e-05
6.043789025e-05
6.043789025e-05
6.043789025e-05
6.043789025e-05
6.043789025e-05
6.043789025e-05
6.043789025e-05
6.043789025e-05
6.043789025e-05
6.043789025e-05
6.043789025e-05
6.043789025e-05
6.043789025e-05
6.043789025e-05
6.043789025e-05
6.043789025e-05
6.043789025e-05
6.043789025e-05
6.043789025e-05
6.043789025e-05
6.043789025e-05
6.043789025e-05
6.043789025e-05
6.043789025e-05
6.043789025e-05
6.043789025e-05
6.043789025e-05
6.043789025e-05
6.043789025e-05
6.043789025e-05
6.043789025e-05
6.043789025e-05
6.043789025e-05
6.043789025e-05
6.043789025e-05
6.043789025e-05
6.043789025e-05
6.043789025e-05
6.043789025e-05
6.043789025e-05
6.043789025e-05
6.043789025e-05
6.043789025e-05
6.043789025e-05
6.043789025e-05
6.043789025e-05
6.043789025e-05
6.043789025e-05
6.043789025e-05
6.043789025e-05
6.043789025e-05
6.043789025e-05
6.043789025e-05
6.043789025e-05
6.043789025e-05
6.043789025e-05
6.043789025e-05
6.043789025e-05
6.043789025e-05
6.043789025e-05
6.043789025e-05
6.043789025e-05
6.043789025e-05
6.043789025e-05
6.043789025e-05
6.043789025e-05
6.043789025e-05
6.043789025e-05
6.043789025e-05
6.043789025e-05
6.043789025e-05
6.043789025e-05
6.043789025e-05
6.043789025e-05
6.043789025e-05
6.043789025e-05
6.043789025e-05
6.043789025e-05
6.043789025e-05
6.043789025e-05
6.043789025e-05
6.043789025e-05
6.043789025e-05
6.043789025e-05
6.043789025e-05
6.043789025e-05
6.043789025e-05
6.043789025e-05
6.043789025e-05
6.043789025e-05
6.043789025e-05
6.043789025e-05
6.043789025e-05
6.043789025e-05
6.043789025e-05
6.043789025e-05
6.043789025e-05
6.043789025e-05
6.043789025e-05
6.043789025e-05
6.043789025e-05
6.043789025e-05
6.043789025e-05
6.043789025e-05
6.043789025e-05
6.043789025e-05
6.043789025e-05
6.043789025e-05
6.043789025e-05
6.043789025e-05
6.043789025e-05
6.043789025e-05
6.043789025e-05
6.043789025e-05
6.043789025e-05
6.043789025e-05
6.043789025e-05
6.043789025e-05
4.488111665e-05
4.333967801e-05
4.350137915e-05
4.555007338e-05
4.570317029e-05
4.438516306e-05
4.381249654e-05
4.283133254e-05
4.285572717e-05
4.263313927e-05
4.249963684e-05
4.240396968e-05
4.308695001e-05
4.362028897e-05
4.463273462e-05
4.417268806e-05
4.335462506e-05
4.378383907e-05
4.547142493e-05
4.628812008e-05
4.372989453e-05
4.046950151e-05
4.215054081e-05
4.590359167e-05
4.667917856e-05
4.533495526e-05
4.327650834e-05
4.230839722e-05
4.301951366e-05
4.374096101e-05
4.398510193e-05
4.401596307e-05
4.411399466e-05
4.436720077e-05
4.502748533e-05
4.432103261e-05
4.254177618e-05
4.314444029e-05
4.432236341e-05
4.508326941e-05
4.359819498e-05
4.047603763e-05
4.537833373e-05
4.679607543e-05
4.61031874e-05
4.381414131e-05
4.130027141e-05
3.961773907e-05
4.009023077e-05
4.213762132e-05
4.296103188e-05
4.343557245e-05
4.304495875e-05
4.322993708e-05
4.359677681e-05
4.317462136e-05
4.112319163e-05
4.177010684e-05
4.357491354e-05
4.458498149e-05
4.357192912e-05
4.37476681e-05
4.572373306e-05
4.639244428e-05
4.444175241e-05
4.109723307e-05
3.874694739e-05
3.737189932e-05
3.681714422e-05
3.872577404e-05
4.198958294e-05
4.31381496e-05
4.329754575e-05
4.305523929e-05
4.297596197e-05
4.119704873e-05
3.742892147e-05
3.91578896e-05
4.261989324e-05
4.490048084e-05
4.341156451e-05
4.432321423e-05
4.541139842e-05
4.573184632e-05
4.461325278e-05
4.257151688e-05
4.024460532e-05
3.689659386e-05
2.726169959e-05
3.628177516e-05
4.142341836e-05
4.458678312e-05
4.543368479e-05
4.464532521e-05
4.294527837e-05
3.981274298e-05
3.458580059e-05
3.724218387e-05
4.126566748e-05
4.454135569e-05
4.255154162e-05
4.24530638e-05
4.291166226e-05
4.321959357e-05
4.345436358e-05
4.34223716e-05
4.288978176e-05
4.037998604e-05
3.458171349e-05
3.929073942e-05
4.271835255e-05
4.535415293e-05
4.499619236e-05
4.264413358e-05
3.656485269e-05
2.724105818e-05
1.835366622e-05
1.835366622e-05
3.476128209e-05
4.216847364e-05
4.329356102e-05
4.339219083e-05
4.32390327e-05
4.35040373e-05
4.377163063e-05
4.467806911e-05
4.461427844e-05
4.389804499e-05
4.089862819e-05
4.299743036e-05
4.538773744e-05
4.66194748e-05
4.633340817e-05
4.51890326e-05
4.15060307e-05
3.606102283e-05
2.8345215e-05
1.835366622e-05
3.508477317e-05
4.186119802e-05
4.482611431e-05
4.491171186e-05
4.508980936e-05
4.458045758e-05
4.521212913e-05
4.587158951e-05
4.561810613e-05
4.508471256e-05
4.36923782e-05
4.387682955e-05
4.538966263e-05
4.542449929e-05
4.575440969e-05
4.526253727e-05
4.46594301e-05
4.211671313e-05
3.914418188e-05
3.42100319e-05
4.19830831e-05
4.466293756e-05
4.41274892e-05
4.484277708e-05
4.531336321e-05
4.404602038e-05
4.452769215e-05
4.57688641e-05
4.528813197e-05
4.55443255e-05
4.518466135e-05
4.464223593e-05
4.416816368e-05
4.370898014e-05
4.416411697e-05
4.379587216e-05
4.500611741e-05
4.456536794e-05
4.388168168e-05
4.144901799e-05
4.551758368e-05
4.449153135e-05
4.293978724e-05
4.477770821e-05
4.505153935e-05
4.387606836e-05
4.340943851e-05
4.442620763e-05
4.426657193e-05
4.357531539e-05
4.267019561e-05
4.345959745e-05
4.238637606e-05
4.166594824e-05
4.309942095e-05
4.316478052e-05
4.463091141e-05
4.584458441e-05
4.615247887e-05
4.578938158e-05
4.667423493e-05
4.164405875e-05
4.125238432e-05
4.37097047e-05
4.400557278e-05
4.334846736e-05
4.353756191e-05
4.29881676e-05
4.27370183e-05
4.064358548e-05
3.765116051e-05
4.148095794e-05
4.224029287e-05
4.173800722e-05
4.206351542e-05
4.112825705e-05
4.177716088e-05
4.465739123e-05
4.59654618e-05
4.659012501e-05
4.308602458e-05
3.592647343e-05
4.367537498e-05
4.321301503e-05
4.203110651e-05
4.265374199e-05
4.386597573e-05
4.240742632e-05
4.037842429e-05
3.597699571e-05
2.961498104e-05
4.136520356e-05
4.340512182e-05
4.369342246e-05
4.272655625e-05
4.180886283e-05
4.152243836e-05
4.332681144e-05
4.57205827e-05
4.643289742e-05
4.321827822e-05
3.933256096e-05
4.099278381e-05
3.854415491e-05
3.497549516e-05
3.710161026e-05
4.175957766e-05
4.134663513e-05
3.705863014e-05
2.869018575e-05
1.835366622e-05
4.134191846e-05
4.279511915e-05
4.297335704e-05
4.013535186e-05
3.974570261e-05
3.884761641e-05
3.969451972e-05
4.37885604e-05
4.428964566e-05
4.053043818e-05
4.255708613e-05
4.367324376e-05
4.368696027e-05
4.177537289e-05
4.250582604e-05
4.34085204e-05
4.398753119e-05
4.316754823e-05
3.973620006e-05
3.111742928e-05
4.268140951e-05
4.504761131e-05
4.566029754e-05
4.434690636e-05
4.35443313e-05
4.196603603e-05
4.082107016e-05
4.278771693e-05
4.302323725e-05
4.473274281e-05
4.622158134e-05
4.456788941e-05
4.517374543e-05
4.353101821e-05
4.377154592e-05
4.434325652e-05
4.466726319e-05
4.494368663e-05
4.269455619e-05
3.546171483e-05
4.312704102e-05
4.571660046e-05
4.553590422e-05
4.448444734e-05
4.335775405e-05
4.281898366e-05
4.262016478e-05
4.295353534e-05
4.301313044e-05
4.636204045e-05
4.643083983e-05
4.620267137e-05
4.647510894e-05
4.51763596e-05
4.421162662e-05
4.491692292e-05
4.539750829e-05
4.560547601e-05
4.375831983e-05
4.011508422e-05
4.469886266e-05
4.635040652e-05
4.566508976e-05
4.399431162e-05
4.265929232e-05
4.212194799e-05
4.34149265e-05
4.358210007e-05
4.498406626e-05
4.594940589e-05
4.185117766e-05
4.689275395e-05
4.66388818e-05
4.580507013e-05
4.46483369e-05
4.460830718e-05
4.441814872e-05
4.490926148e-05
4.443634178e-05
4.242460868e-05
4.552259059e-05
4.563416796e-05
4.501520752e-05
4.432416217e-05
4.270814565e-05
4.248904137e-05
4.441110311e-05
4.467267015e-05
4.503211194e-05
4.191900848e-05
3.324761399e-05
4.734267998e-05
4.669716119e-05
4.531384992e-05
4.345191237e-05
4.328169069e-05
4.365995063e-05
4.424507481e-05
4.486260587e-05
4.429911121e-05
4.579052435e-05
4.461486267e-05
4.354169454e-05
4.380780943e-05
4.239475681e-05
4.217121049e-05
4.442223324e-05
4.445992184e-05
4.323058963e-05
3.714436899e-05
1.835366622e-05
4.66181988e-05
4.555636823e-05
4.395187899e-05
4.256522727e-05
4.189846688e-05
4.326934448e-05
4.50774563e-05
4.556716467e-05
4.460690563e-05
4.442936858e-05
4.337070284e-05
4.321013656e-05
4.436100871e-05
4.322137097e-05
4.406646746e-05
4.595819585e-05
4.585463376e-05
4.603270399e-05
4.329549563e-05
3.643452168e-05
4.531783888e-05
4.461641179e-05
4.287078406e-05
4.223697323e-05
4.173869942e-05
4.27693444e-05
4.522889362e-05
4.557186408e-05
4.498332928e-05
4.373471267e-05
4.368835336e-05
4.389584317e-05
4.569050829e-05
4.49232686e-05
4.528764326e-05
4.631970843e-05
4.612876586e-05
4.687360912e-05
4.63533561e-05
4.258327307e-05
3.614311434e-05
3.154686686e-05
3.046621336e-05
3.493968299e-05
3.358089171e-05
3.176844964e-05
2.997064206e-05
2.805493775e-05
2.809427882e-05
2.951549476e-05
3.084620815e-05
3.169685295e-05
3.231467906e-05
3.273056963e-05
3.399499703e-05
3.359559351e-05
2.972247606e-05
3.039042112e-05
3.379401053e-05
3.512561e-05
3.432858696e-05
1.835366622e-05
1.835366622e-05
3.569471015e-05
3.368467159e-05
2.987601639e-05
2.549500871e-05
2.324763652e-05
2.375322276e-05
2.64785757e-05
3.0090753e-05
3.238644088e-05
3.358980601e-05
3.421659109e-05
3.512689308e-05
3.266635027e-05
2.519235204e-05
2.585398267e-05
3.128320403e-05
3.394144733e-05
3.223909486e-05
1.835366622e-05
3.425472484e-05
3.467410705e-05
3.024434114e-05
2.442026183e-05
1.835366622e-05
1.835366622e-05
1.835366622e-05
1.847898143e-05
2.600933156e-05
3.049468459e-05
3.243606415e-05
3.339822369e-05
3.329217451e-05
2.98611633e-05
1.835366622e-05
1.835366622e-05
2.872615495e-05
3.303173048e-05
3.451996102e-05
3.242780738e-05
3.532407371e-05
3.262655015e-05
2.635512956e-05
1.835366622e-05
1.835366622e-05
1.835366622e-05
1.835366622e-05
1.835366622e-05
2.312943024e-05
2.948814783e-05
3.277290479e-05
3.36040912e-05
3.186542226e-05
2.722378181e-05
1.835366622e-05
1.835366622e-05
2.736743726e-05
3.277600262e-05
3.478830199e-05
3.505288543e-05
3.522510083e-05
3.359259977e-05
3.010815704e-05
2.506764298e-05
1.842622335e-05
1.835366622e-05
1.835366622e-05
1.835366622e-05
2.337027636e-05
3.13154744e-05
3.542003475e-05
3.447617513e-05
3.065888229e-05
2.518636196e-05
1.835366622e-05
1.835366622e-05
2.63110833e-05
3.226293587e-05
3.319280664e-05
3.25233097e-05
3.24454955e-05
3.250639199e-05
3.180104929e-05
3.051581439e-05
2.778365958e-05
2.378525916e-05
1.835366622e-05
2.106153902e-05
2.81087095e-05
3.454497e-05
3.548066618e-05
2.909121096e-05
2.082487138e-05
1.835366622e-05
1.835366622e-05
1.835366622e-05
1.835366622e-05
2.76983793e-05
3.418369289e-05
3.361431347e-05
3.304801856e-05
3.317846164e-05
3.362606181e-05
3.398442065e-05
3.282621662e-05
3.04152981e-05
2.690752024e-05
2.917583148e-05
3.36993341e-05
3.715445461e-05
3.687120841e-05
3.326858773e-05
2.623825746e-05
1.835366622e-05
1.835366622e-05
1.835366622e-05
1.835366622e-05
2.801948459e-05
3.491137154e-05
3.509099533e-05
3.449213987e-05
3.365808663e-05
3.457447897e-05
3.547483635e-05
3.526755948e-05
3.419059547e-05
3.315228821e-05
3.370553386e-05
3.547803127e-05
3.558713454e-05
3.625818598e-05
3.562248468e-05
3.258359591e-05
2.739121738e-05
2.36286722e-05
1.835366622e-05
2.714246772e-05
3.31016731e-05
3.320547155e-05
3.526669192e-05
3.416612355e-05
3.27453662e-05
3.376819824e-05
3.550553084e-05
3.480657876e-05
3.378081081e-05
3.20261369e-05
3.196501573e-05
3.29957287e-05
3.235247727e-05
3.323650981e-05
3.422653828e-05
3.516426826e-05
3.325775204e-05
3.10383149e-05
2.862606766e-05
3.429527148e-05
3.367268928e-05
3.272329799e-05
3.503001694e-05
3.316805419e-05
3.148346364e-05
3.216058656e-05
3.366351105e-05
3.240584406e-05
2.933643696e-05
2.581636828e-05
2.733065279e-05
3.034602834e-05
3.062134083e-05
3.214939775e-05
3.290997753e-05
3.498249025e-05
3.625956678e-05
3.544122642e-05
3.543031088e-05
3.733104842e-05
2.57247244e-05
3.342091106e-05
3.307020285e-05
3.080525746e-05
2.93488556e-05
3.121977294e-05
3.133141535e-05
2.923544831e-05
2.340461886e-05
1.835366622e-05
2.03323824e-05
2.886371149e-05
3.028246639e-05
3.09038567e-05
3.076941133e-05
3.144091972e-05
3.4384669e-05
3.640513783e-05
3.723857163e-05
3.101054114e-05
1.835366622e-05
3.244935151e-05
2.916234181e-05
2.592926854e-05
2.507539736e-05
2.86429789e-05
2.831918463e-05
2.536138989e-05
1.835366622e-05
1.835366622e-05
1.835366622e-05
2.907525738e-05
3.067801434e-05
2.994751431e-05
2.944819931e-05
2.965752379e-05
3.177821052e-05
3.527301447e-05
3.545237533e-05
3.078373164e-05
2.617526983e-05
2.174918365e-05
1.835366622e-05
1.835366622e-05
1.835366622e-05
1.835366622e-05
1.99682436e-05
2.034710246e-05
1.835366622e-05
1.835366622e-05
1.835366622e-05
1.855434073e-05
1.835366622e-05
1.835366622e-05
1.835366622e-05
1.902716672e-05
2.418088987e-05
3.157854209e-05
2.285437166e-05
1.835366622e-05
2.986015669e-05
2.906268109e-05
2.632276614e-05
2.298801334e-05
2.574676088e-05
2.948848049e-05
3.087765025e-05
2.875638325e-05
1.835366622e-05
1.835366622e-05
1.900435967e-05
2.824073669e-05
2.973738538e-05
2.864929141e-05
2.855487922e-05
2.868562333e-05
2.908514396e-05
3.182443959e-05
2.49575148e-05
3.161106245e-05
3.514644056e-05
3.245500216e-05
3.141062899e-05
2.893181422e-05
3.017785532e-05
3.237122831e-05
3.314765438e-05
3.116908384e-05
2.274919854e-05
1.835366622e-05
2.438213956e-05
3.10055904e-05
3.222900925e-05
3.161410025e-05
3.146381189e-05
3.152862288e-05
3.15939157e-05
3.201257246e-05
2.912896044e-05
3.473258929e-05
3.63167366e-05
3.498204689e-05
3.486335e-05
3.287246849e-05
3.255364715e-05
3.395073305e-05
3.443179291e-05
3.319725321e-05
2.807833021e-05
1.875169682e-05
2.961864625e-05
3.383726901e-05
3.389681925e-05
3.270873924e-05
3.189081815e-05
3.125270826e-05
3.222849826e-05
3.267035237e-05
3.360869238e-05
3.564565284e-05
3.107907962e-05
3.68157844e-05
3.661535037e-05
3.495097588e-05
3.376332114e-05
3.39192385e-05
3.407987056e-05
3.376195445e-05
3.107348083e-05
2.520780267e-05
3.311174752e-05
3.513179966e-05
3.47787566e-05
3.360660957e-05
3.188518875e-05
3.106269508e-05
3.260831897e-05
3.379330998e-05
3.398633214e-05
2.90115315e-05
1.835366622e-05
3.764779104e-05
3.70058323e-05
3.470331925e-05
3.271158761e-05
3.253794694e-05
3.299215314e-05
3.35253048e-05
3.278215258e-05
3.039027691e-05
3.503574696e-05
3.446935282e-05
3.301768183e-05
3.184019951e-05
2.986081362e-05
2.933716707e-05
3.205115831e-05
3.375683652e-05
3.331852611e-05
1.835366622e-05
1.835366622e-05
3.656313468e-05
3.547091595e-05
3.283758296e-05
3.056983425e-05
3.029835472e-05
3.200411662e-05
3.399856285e-05
3.375838858e-05
3.248116549e-05
3.148215319e-05
3.172775421e-05
3.121742392e-05
3.148947514e-05
3.000492758e-05
3.111904494e-05
3.346563204e-05
3.449685103e-05
3.507824785e-05
3.065785857e-05
1.835366622e-05
3.489680799e-05
3.355328318e-05
3.04849813e-05
2.872195182e-05
2.854564498e-05
3.058477372e-05
3.334247117e-05
3.297660632e-05
3.281014708e-05
3.024056563e-05
3.166299536e-05
3.205541721e-05
3.296778531e-05
3.123518626e-05
3.200543218e-05
3.40459124e-05
3.473881232e-05
3.545400821e-05
3.548571167e-05
3.145711039e-05
3.097913389e-05
2.616808212e-05
2.51151355e-05
2.849497657e-05
2.656156437e-05
2.4594308e-05
2.278284109e-05
2.099814058e-05
2.09475977e-05
2.272850134e-05
2.439628904e-05
2.564090103e-05
2.575343065e-05
2.579084103e-05
2.665086185e-05
2.76622519e-05
2.390500079e-05
2.448915162e-05
2.724723562e-05
2.894978418e-05
1.864501497e-05
1.835366622e-05
2.33715847e-05
2.899482835e-05
2.52959168e-05
2.155676369e-05
1.842195691e-05
1.835366622e-05
1.835366622e-05
1.967946922e-05
2.23066194e-05
2.527662868e-05
2.712673114e-05
2.807101511e-05
2.911866214e-05
2.616050329e-05
1.835366622e-05
1.835366622e-05
2.29583033e-05
2.649524512e-05
1.835366622e-05
2.031129984e-05
2.82513513e-05
2.64111847e-05
2.116337222e-05
1.835366622e-05
1.835366622e-05
1.835366622e-05
1.835366622e-05
1.835366622e-05
1.835366622e-05
2.287661838e-05
2.592265888e-05
2.740280162e-05
2.703919912e-05
2.235252954e-05
1.872202302e-05
1.835366622e-05
1.878153702e-05
2.521248951e-05
2.904625229e-05
2.779047338e-05
2.826974895e-05
2.374246083e-05
1.835366622e-05
1.835366622e-05
1.835366622e-05
1.835366622e-05
1.835366622e-05
1.835366622e-05
1.837196935e-05
2.237215481e-05
2.661907587e-05
2.836297731e-05
2.540223054e-05
1.835366622e-05
1.835366622e-05
1.835366622e-05
1.835366622e-05
2.51961251e-05
3.010824484e-05
2.955871896e-05
2.84269279e-05
2.539697852e-05
2.115476093e-05
1.835366622e-05
1.835366622e-05
1.835366622e-05
1.835366622e-05
1.835366622e-05
1.835366622e-05
2.441592893e-05
2.951004436e-05
2.892591645e-05
2.401554231e-05
1.835366622e-05
1.835366622e-05
1.837991214e-05
1.835366622e-05
2.534444775e-05
2.869683227e-05
2.730644036e-05
2.678563356e-05
2.66534612e-05
2.504045705e-05
2.335936503e-05
2.051148413e-05
1.835366622e-05
1.835366622e-05
1.835366622e-05
2.196462718e-05
2.847483693e-05
3.079440822e-05
2.344719567e-05
1.835366622e-05
1.835366622e-05
1.835366622e-05
1.913930883e-05
1.835366622e-05
2.231108257e-05
2.961580702e-05
2.837574342e-05
2.7352159e-05
2.763512339e-05
2.834609871e-05
2.818412162e-05
2.61176581e-05
2.449811335e-05
2.219343e-05
2.495946271e-05
2.803674833e-05
3.185714273e-05
3.204398933e-05
2.647163114e-05
1.897620106e-05
1.835366622e-05
1.835366622e-05
1.846518139e-05
1.835366622e-05
2.312634728e-05
2.99036184e-05
2.916170324e-05
2.724764745e-05
2.666165779e-05
2.809340462e-05
2.974814307e-05
2.950372014e-05
2.843970934e-05
2.741058432e-05
2.802912053e-05
2.95457656e-05
2.939400464e-05
3.052577023e-05
3.021953121e-05
2.53323073e-05
2.001893416e-05
1.835366622e-05
1.835366622e-05
2.102698821e-05
2.768121802e-05
2.902327239e-05
2.910775867e-05
2.598219477e-05
2.493141603e-05
2.670237424e-05
2.920287249e-05
2.832799762e-05
2.647229199e-05
2.402705274e-05
2.36892804e-05
2.565980229e-05
2.510766895e-05
2.659831516e-05
2.866823841e-05
3.014428192e-05
2.699127187e-05
2.43464103e-05
2.271321498e-05
2.795373347e-05
2.681585632e-05
2.867122785e-05
2.843439029e-05
2.465377585e-05
2.311333684e-05
2.48121271e-05
2.705294292e-05
2.558086002e-05
2.184712698e-05
1.835366622e-05
1.835366622e-05
2.252025739e-05
2.345085509e-05
2.503988003e-05
2.670661201e-05
2.924049943e-05
3.081415699e-05
2.946463757e-05
2.967177161e-05
3.07421272e-05
1.835366622e-05
2.864892143e-05
2.608478739e-05
2.247814346e-05
2.077641798e-05
2.279087907e-05
2.42596075e-05
2.28002981e-05
1.835366622e-05
1.835366622e-05
1.835366622e-05
1.91355986e-05
2.183704694e-05
2.28258267e-05
2.41275757e-05
2.546764123e-05
2.765141215e-05
3.051364037e-05
3.15912224e-05
2.44451657e-05
1.835366622e-05
2.562750329e-05
2.099726451e-05
1.835366622e-05
1.835366622e-05
1.852007923e-05
2.119060472e-05
2.023165517e-05
1.835366622e-05
1.852594226e-05
1.835366622e-05
1.835366622e-05
1.836154072e-05
1.835366622e-05
2.088857688e-05
2.298742998e-05
2.507137957e-05
2.91119445e-05
3.031533503e-05
2.466679562e-05