/*--------------------------------*- C++ -*----------------------------------*\
  =========                 |
  \\      /  F ield         | OpenFOAM: The Open Source CFD Toolbox
   \\    /   O peration     | Website:  https://openfoam.org
    \\  /    A nd           | Version:  7
     \\/     M anipulation  |
\*---------------------------------------------------------------------------*/
FoamFile
{
    version     2.0;
    format      ascii;
    class       volScalarField;
    location    "60";
    object      pDyn;
}
// * * * * * * * * * * * * * * * * * * * * * * * * * * * * * * * * * * * * * //

dimensions      [1 -1 -2 0 0 0 0];

internalField   nonuniform List<scalar> 
16320
(
0.111259344
0.08370959771
0.07101976351
0.05943003996
0.04854308227
0.0438731429
0.04285401122
0.04533169468
0.04991394455
0.05634626526
0.06303454912
0.0677436329
0.06936161364
0.07026317996
0.07301031712
0.07686566194
0.07900404127
0.08161024191
0.08655522415
0.1097418239
0.08976811595
0.05577450947
0.04532255401
0.03969548963
0.03605691498
0.03543312485
0.03632900583
0.03838995235
0.04096482727
0.04554457083
0.05104666504
0.05515717838
0.05662028607
0.05629902725
0.05544152083
0.05477384256
0.05302908706
0.05426294764
0.05990105044
0.08428549801
0.08790321107
0.05335630833
0.04427547115
0.03687845705
0.03396929591
0.03352014452
0.03382792791
0.0348859495
0.0356496213
0.03893313543
0.044226857
0.04893288281
0.05147352049
0.05200213349
0.05107251315
0.04842498859
0.04437916693
0.04560735127
0.05248609736
0.07577804945
0.09088413119
0.05754563245
0.04488101666
0.03760186959
0.03481754651
0.03400682981
0.03396930086
0.03440935786
0.0336666731
0.03569199318
0.04006023356
0.0443486786
0.04694644089
0.04832575316
0.04763433719
0.0443673988
0.03971989045
0.04132559339
0.04833505004
0.06941448446
0.09228717771
0.06080598129
0.04729521253
0.04048590489
0.03784025778
0.03689754067
0.03629516003
0.03591661147
0.03283937127
0.0358532785
0.03863052338
0.04093790993
0.04246292761
0.04399495045
0.0437156928
0.04051962918
0.03556905932
0.03691028364
0.04500820017
0.06452732729
0.0909977207
0.06146707504
0.04877950571
0.04246275594
0.03969861697
0.03846150756
0.03784752799
0.03764238467
0.03602875969
0.03781691979
0.03883782189
0.03921504459
0.03984177148
0.04038507366
0.03919240576
0.03352544676
0.02220594618
0.02311448027
0.03827349581
0.05681460871
0.08543999194
0.05794602097
0.0468915952
0.04109428085
0.03842980912
0.03705858115
0.03667165592
0.03679070516
0.03678040276
0.03798681114
0.03839292364
0.03855327444
0.03903395868
0.03967776855
0.03928291412
0.03678969712
0.03186474755
0.02390999837
0.03799925542
0.05466400861
0.07699884366
0.05314698718
0.04399429525
0.03914979511
0.03647197544
0.03510616351
0.03488065488
0.03534319688
0.03625265473
0.03831186581
0.03962748828
0.04061778186
0.04081621046
0.04095915479
0.04001982488
0.03845173004
0.03674735213
0.03359741828
0.04041608145
0.05378670655
0.06777966852
0.04920870053
0.04199874717
0.03825449972
0.03618324487
0.03515381827
0.03525471588
0.03565053552
0.03662077583
0.04012438765
0.04359678529
0.04595418668
0.04603170763
0.04507073301
0.04273662857
0.04042379519
0.03882823391
0.03776450542
0.04116491838
0.05374307483
0.06008481234
0.04635773301
0.04083896031
0.03795886271
0.03680058018
0.03636178326
0.03662589566
0.03687089198
0.03731427779
0.04197691954
0.0477846939
0.05210786343
0.05274124083
0.05085597554
0.04660023359
0.04243143163
0.03961597072
0.03808062995
0.04119947875
0.05343040831
0.05593464383
0.04456691137
0.04000188758
0.03751672746
0.03672222314
0.03693255178
0.03692681402
0.03633865849
0.03554840676
0.04082771721
0.04785163167
0.05387065933
0.05687124282
0.05668659682
0.05195339188
0.04519709416
0.04068070185
0.03822551366
0.04087605601
0.05236534649
0.0517099665
0.04260744169
0.03831031918
0.03578187044
0.03507417533
0.03552301219
0.0353182983
0.03356570557
0.03038119506
0.03661051272
0.04279023994
0.04822262072
0.0528191196
0.05522180036
0.05334778394
0.04765336832
0.04234971961
0.03964148948
0.04269449151
0.05747927378
0.05000527745
0.03945281705
0.03523139028
0.03297055987
0.0325348349
0.03286294871
0.03239177138
0.02859759623
0.01993868286
0.03223086255
0.03608626577
0.03925784661
0.04352492578
0.0476180664
0.04989258836
0.04757853686
0.04260179188
0.03888499828
0.03891559235
0.05643646079
0.05486967821
0.04220763631
0.03836415432
0.03675652782
0.03622361144
0.03548685665
0.03367432614
0.0302934394
0.0268218813
0.03177183134
0.03493321947
0.03814268328
0.04235395252
0.04651475339
0.04911697041
0.04821448137
0.04454309686
0.04152212679
0.0419648125
0.05778473575
0.06065540901
0.04447132458
0.04091717427
0.0398306178
0.03910501816
0.03780348241
0.03526866529
0.03184574696
0.02845209789
0.03207950739
0.03458193179
0.03743805393
0.0411207095
0.04482166008
0.04680000631
0.0461034548
0.0441186019
0.04274899353
0.04439754879
0.0640597727
0.06633144561
0.04583261258
0.04242732788
0.04190530959
0.04130824373
0.03991606885
0.03743356342
0.03446077972
0.03115301952
0.03346580428
0.0349652453
0.03706126113
0.03994078084
0.0428340487
0.04415022915
0.04326442661
0.0425776963
0.04323093746
0.04841590302
0.0734675674
0.07100976136
0.04798691402
0.04436832003
0.04390969542
0.04360294689
0.04229266821
0.03972757925
0.03689883826
0.03422111121
0.03500216102
0.03573612451
0.03681953833
0.03826464698
0.04017654748
0.04092811599
0.04031126198
0.04120815524
0.04473862939
0.05290502897
0.0755083469
0.07784473087
0.05272244145
0.04866149318
0.04788585029
0.04709368766
0.04495242145
0.04182739252
0.03877651323
0.03649940513
0.03646630366
0.0369250707
0.0372503282
0.03738966557
0.03840413266
0.03898334646
0.03902622368
0.04136117901
0.04689950115
0.05439732669
0.0611595626
0.08819825668
0.06254470323
0.05725639786
0.05484378552
0.05265791548
0.04878772982
0.04441694285
0.04135179584
0.03981016299
0.0395241932
0.03972607471
0.03904669492
0.03814347578
0.03874643727
0.03940764598
0.04048051589
0.04397671236
0.05067326686
0.06187737625
0.08128054959
0.1131794234
0.09017329226
0.08270277389
0.07591414829
0.06957745975
0.06114704965
0.05386843051
0.05079935177
0.04970069273
0.0490448277
0.04817984142
0.04644037408
0.04528140363
0.04706169134
0.05043403922
0.05576529325
0.06394278674
0.07305923443
0.08657157694
0.1084306648
0.2149052651
0.1625316588
0.1363401492
0.1202319645
0.1089373827
0.1050102656
0.1047556766
0.1112863636
0.1233804243
0.139332003
0.1550920272
0.1645541353
0.1660017614
0.1644509912
0.1650512314
0.1692494396
0.1688155208
0.1726380172
0.1847031431
0.2102133147
0.1871430564
0.119421692
0.09915206097
0.1017358119
0.09536343591
0.0915256355
0.08952772213
0.09264044034
0.100522902
0.1154717586
0.1327026697
0.1442828584
0.1475547523
0.1467631283
0.1457453375
0.1440865031
0.1347792505
0.1384840416
0.1566790428
0.1811676309
0.187702602
0.1151456793
0.1114137218
0.09661451955
0.08832137763
0.08085952288
0.07384572218
0.0740326831
0.07748020839
0.08953390026
0.1105442427
0.126780458
0.133527335
0.1353012051
0.134590757
0.1258493097
0.1047235434
0.1074587656
0.1367592601
0.1649261788
0.2032173937
0.1392631886
0.1157217649
0.09900252604
0.08774131854
0.07668817512
0.07112606421
0.07179826912
0.07238487497
0.07880064718
0.09685033796
0.1139791984
0.1219130657
0.1264087263
0.1265066854
0.1148976899
0.09394593965
0.09901934731
0.1277209679
0.1558282024
0.2109666147
0.1507705941
0.1229255096
0.1074517622
0.09908344086
0.09140336727
0.08303661323
0.08033850577
0.07363384101
0.0803920638
0.09361794261
0.1057494477
0.1114395491
0.1174470818
0.1179968221
0.1080128903
0.09183652153
0.1038159149
0.1260752628
0.1503209139
0.2068499887
0.1516707767
0.1249077433
0.1107420103
0.1043993915
0.1001459759
0.0958804965
0.09273786112
0.0844243557
0.09227659202
0.09934124443
0.1031601617
0.1053538125
0.107598233
0.1048168391
0.09549894106
0.06110709422
0.09462401781
0.1196966481
0.1392549693
0.1915807577
0.1440601324
0.1198759349
0.1063219024
0.1003787429
0.09753270056
0.09633849897
0.09593098375
0.09381463266
0.09876988762
0.1017233958
0.1031861571
0.1049597862
0.1072189763
0.1046165559
0.09782456251
0.09674135559
0.09407340173
0.1135508733
0.1349572162
0.1739260722
0.1350931099
0.1143685368
0.1023769402
0.096331708
0.09348301468
0.09263596469
0.09327492775
0.09426607829
0.1000617481
0.104264885
0.1071203317
0.1079937239
0.1096389741
0.1088562914
0.104729105
0.1042709818
0.1028314888
0.1147708268
0.13322629
0.1576991315
0.1263497067
0.1098837
0.1000548148
0.09547497333
0.09383875977
0.09411328579
0.09467278301
0.09606125015
0.1051095931
0.1135087981
0.1188728854
0.1189949761
0.1168270861
0.1141810987
0.1108743321
0.1093811977
0.1073438457
0.1142124188
0.1287601506
0.144815449
0.1192433586
0.106556675
0.09886022501
0.09636599381
0.09618979367
0.09744861648
0.09632742042
0.0947205816
0.107626233
0.1235716209
0.1336782171
0.1351383326
0.129726168
0.1203795345
0.1131949868
0.1093043057
0.1052601065
0.1106787624
0.1203771565
0.1362061576
0.1138848871
0.1029180621
0.09642802226
0.09552484455
0.09673168267
0.09697065838
0.09151499632
0.08615288308
0.1000297481
0.1240584485
0.1403806023
0.1475849962
0.1450030165
0.1315054904
0.1166376087
0.1084086351
0.1023029096
0.1039096974
0.1043352387
0.1259449578
0.1073454018
0.09489012729
0.08835157318
0.08791094814
0.0907360917
0.09045369233
0.08284748646
0.07881531419
0.0871915416
0.1087697791
0.1238276315
0.1351609543
0.1403882898
0.1346219979
0.1212705221
0.1114344457
0.1053043215
0.1102866707
0.140336794
0.1135239635
0.08884877257
0.07787240237
0.07259575995
0.07116444521
0.07785817687
0.08100395017
0.07416493326
0.05226276598
0.07803267929
0.08152188875
0.08499605085
0.09397467469
0.1047545545
0.1153760958
0.1147251466
0.1071840032
0.09459021351
0.08578525629
0.1276825018
0.127849197
0.1051658478
0.09339348679
0.09153615999
0.09200905377
0.09287887022
0.08834291089
0.07453938655
0.06900673914
0.0766771873
0.08717218041
0.09570181376
0.1057797159
0.1162300734
0.1233388462
0.1210510639
0.1138715839
0.1050220452
0.106881702
0.1316050787
0.1369713488
0.1153237119
0.1049027714
0.1038305379
0.1034565433
0.1016687494
0.09511512285
0.08113173666
0.06954883562
0.08187601958
0.09178094988
0.09969416469
0.1077794065
0.115499945
0.1194671858
0.1176164159
0.1140188868
0.1111675479
0.1167202004
0.1389604331
0.1422797694
0.1204912832
0.1113645312
0.1107251424
0.1105876872
0.1083538009
0.1023467801
0.09128610628
0.07632155377
0.0891892343
0.09565196476
0.1005615508
0.1055817068
0.1106515454
0.1129529771
0.1114291864
0.1111827513
0.1149401504
0.1274187089
0.1501537896
0.1480782376
0.1259950244
0.1171342035
0.115955615
0.1160135429
0.1134905377
0.1076812918
0.09914323273
0.08796356927
0.09467155789
0.09712119653
0.09860936132
0.1003278391
0.103379132
0.1049441152
0.1047938733
0.1086022444
0.1200250698
0.1350724204
0.1425040256
0.1599183256
0.1367407514
0.1266066676
0.1240733084
0.1227053716
0.1182466574
0.1110938098
0.1034080922
0.09569552492
0.09745369984
0.09796232853
0.09744304665
0.09683401862
0.09804490186
0.0991155049
0.1008174704
0.1082027874
0.1245085361
0.130148583
0.08793668806
0.182774345
0.1570063398
0.1443059325
0.1384770782
0.1337289983
0.1260490011
0.1163438882
0.1084943825
0.1028656089
0.1017270794
0.1021639162
0.1000502133
0.09780423291
0.09860350209
0.1003930211
0.1045680414
0.1145025319
0.1327616488
0.1560630749
0.1575343206
0.2210766687
0.1905732191
0.1729078591
0.1600475704
0.1491093563
0.138140913
0.1285592346
0.1232475
0.119192845
0.1161773779
0.1159727851
0.1120721473
0.1086783615
0.1091737448
0.1114716742
0.1171207868
0.1289088958
0.1481483755
0.1784236354
0.1966020199
0.1564148567
0.1395506558
0.116900337
0.100407964
0.09503459027
0.09760373935
0.0980878175
0.1048860587
0.113489509
0.1251024358
0.1319399452
0.130836912
0.1222284088
0.1201288713
0.1246619761
0.1431825522
0.1521884454
0.1609145573
0.1653138527
0.1684228223
0.1404418785
0.1075280613
0.09141395441
0.09274127425
0.08900712177
0.08931645477
0.09004631589
0.0904028954
0.09215930416
0.1079764341
0.1209306631
0.126225276
0.1231320059
0.1221008383
0.1297417175
0.1405197066
0.1373000501
0.1502845505
0.1645697323
0.1688797689
0.1282880984
0.08388901663
0.09743736919
0.08556412176
0.08205573907
0.08043102798
0.07366994029
0.06755357578
0.05909667654
0.08040458495
0.1025392261
0.1158137617
0.1190486204
0.1204868437
0.1296483089
0.1262568742
0.102071966
0.1196530972
0.1478653526
0.1592064166
0.1542431604
0.1155007638
0.09918757555
0.08755436618
0.082192624
0.07558958566
0.06080896847
0.05211995712
0.03472855914
0.04847384166
0.08195773526
0.1037605047
0.1098867077
0.1176190811
0.1241495973
0.1071008827
0.06239259239
0.08619586075
0.1313192324
0.1514090413
0.1556231621
0.1211537875
0.1034433503
0.09529705934
0.09366766978
0.09228849882
0.083865613
0.07070675457
0.02172316675
0.06291366696
0.08394041632
0.09430487917
0.09803065748
0.1111007986
0.1134931905
0.08824817222
0.0388177052
0.06550038598
0.1226511959
0.1493700961
0.1481363999
0.1212808112
0.1045594717
0.09843173866
0.09890257061
0.09987899527
0.09689919545
0.09142651569
0.06887212493
0.08974571213
0.09686248967
0.09591045644
0.09648914328
0.09964336764
0.08520262535
0.03754715423
0.02661862115
0.02430869396
0.0808469772
0.1295973293
0.1396751872
0.1145486961
0.09802015879
0.08823739857
0.0881753676
0.09061740543
0.09349935917
0.09332762685
0.08868314804
0.095797128
0.09498085509
0.0938570653
0.09721419501
0.1059586708
0.1082763591
0.08720425559
0.03928356091
0.02823421286
0.08273612067
0.1281410692
0.1318584514
0.1106016773
0.0941224523
0.08569506387
0.08192155112
0.0826272049
0.08529294543
0.08697515611
0.08668184349
0.09223553146
0.09230729417
0.09463132297
0.09521469653
0.1060092396
0.1138046836
0.1118478333
0.0914509911
0.07027967876
0.1138030751
0.1330717454
0.1317692246
0.1096566235
0.09471603874
0.08934399189
0.08686053021
0.08771504811
0.09335141015
0.09366455483
0.09134827897
0.09980680134
0.1044530415
0.1059291641
0.1002517704
0.1022942775
0.1088491928
0.1167749024
0.1151519543
0.1086475908
0.121316239
0.1228728037
0.1263957113
0.1050981878
0.09366368522
0.09031570632
0.09347840878
0.096580526
0.1030931585
0.1016833295
0.09080426995
0.1073271659
0.1206003182
0.1245275464
0.1127426409
0.1038797157
0.09813234178
0.1034258399
0.1099707046
0.106597545
0.1133982436
0.1004861953
0.1177878665
0.1010474854
0.08810294377
0.08529934393
0.09107829206
0.1000633636
0.1037532877
0.09462794009
0.0699239853
0.104707036
0.1223046418
0.1306593114
0.126528594
0.122794483
0.1084848238
0.09694205137
0.1002674817
0.09730481254
0.09858321229
0.05555512457
0.1062522915
0.08769777019
0.07105759722
0.06636792621
0.07570755937
0.087202361
0.08976723139
0.06993999624
0.02453156825
0.08133153887
0.1019907799
0.1075126768
0.1115401024
0.1186194612
0.1149296212
0.1011710783
0.0976899257
0.09645848868
0.1024236769
0.1016348587
0.08839006037
0.05477729278
0.03252244798
0.02990888756
0.0501949482
0.05868304353
0.0593773126
0.02688176513
0.01683955479
0.06024377536
0.06878124239
0.06651365109
0.06744274451
0.08345517259
0.1001261929
0.09503535398
0.08506816549
0.08066525598
0.06603902215
0.1041780924
0.1064756204
0.08389517601
0.0693412054
0.06812581255
0.07891568869
0.08550221989
0.08350983266
0.05885075157
0.01679620997
0.06664795235
0.08130343792
0.08461842298
0.09039992783
0.09828641918
0.1052331458
0.1040203292
0.09718534607
0.09337751654
0.0922846479
0.1108308634
0.1157044725
0.0998912544
0.09044505731
0.09060973108
0.09594816211
0.1014878661
0.09832589945
0.0801164906
0.03764280656
0.08187222327
0.09499437505
0.1014714271
0.1046967194
0.1062830927
0.1028200549
0.09783915514
0.09910255456
0.1035780509
0.1072297066
0.1186021835
0.1139390682
0.1046397291
0.09733443203
0.1012120987
0.1045119793
0.108921178
0.1077335363
0.09848643926
0.07356919566
0.09630586845
0.1023662257
0.1051028936
0.1053182012
0.1026216087
0.09773573253
0.09100241099
0.097523991
0.1091537811
0.1231219053
0.1159104415
0.1127580122
0.1070326935
0.09894742902
0.1018857268
0.1064160318
0.1120603478
0.1107263467
0.1040501276
0.09191734487
0.09909790555
0.100863954
0.09727767866
0.09087799084
0.08832576985
0.08508167614
0.08301279023
0.09527775406
0.1149241283
0.1215392941
0.05568614805
0.1151704452
0.1098417545
0.1011352827
0.1038192297
0.1065652756
0.1082735062
0.10578365
0.09882284707
0.0903586936
0.09079103704
0.0922582381
0.08812554452
0.07958257863
0.07761240178
0.07696287503
0.07810475457
0.09483933601
0.1182809893
0.09041738046
0.04481595566
0.129287276
0.1220443244
0.1108043298
0.1093490834
0.1118857845
0.108197714
0.09975566164
0.09315714391
0.08808768747
0.08234069051
0.08693501181
0.08230738031
0.07475524404
0.07542920283
0.07478086254
0.07930022541
0.09666781208
0.1243481571
0.1524564858
0.09740459193
0.1455945714
0.1343187384
0.1205970192
0.1114082086
0.1097730357
0.1091890413
0.1026814774
0.09967869051
0.09450189503
0.08570398325
0.09027077367
0.0857988938
0.07758720164
0.07693887328
0.07638126824
0.08144517034
0.09678522435
0.1213042072
0.1591328928
0.1592473412
0.06222311315
0.04316811117
0.0345959728
0.05697793319
0.05882186087
0.05957961085
0.05487907962
0.05113764431
0.05190236708
0.06363021505
0.07327480349
0.07118222137
0.05923157809
0.05296695963
0.05877160331
0.07391629735
0.06413800516
0.07408275154
0.09255845224
0.09894425288
0.05174585468
0.0395894003
0.01588838281
0.06252281573
0.05874138017
0.05122695887
0.03744127483
0.02831167465
0.0295575879
0.04201193826
0.06327858032
0.07410525608
0.07401926832
0.0738659478
0.08172902889
0.07846378568
0.04378662994
0.04702175634
0.08644732788
0.1039179642
0.03166813396
0.03710280873
0.0518325295
0.05561503738
0.04762196389
0.03077595627
0.01910813927
0.02305575283
0.02767979028
0.02499397747
0.03942496052
0.06152431692
0.07382275948
0.0809944094
0.08554672412
0.06053051847
0.03655570849
0.03383130116
0.06222187226
0.09404297064
0.05758632232
0.03917113788
0.05745113738
0.04894584592
0.03363982714
0.02002174959
0.02477259488
0.02152046898
0.02318549078
0.02801113783
0.02021325286
0.04179494424
0.06422411455
0.08119032633
0.07896048466
0.04554415948
0.03811359514
0.03495473874
0.04929347534
0.08703338295
0.06027923157
0.05580417045
0.05804790822
0.05890868927
0.05519650784
0.03926053236
0.01934128117
0.01540923431
0.02442374248
0.02557320635
0.02088521504
0.04323313521
0.06375613726
0.07918606101
0.06313171957
0.0259208117
0.0380936693
0.04283762702
0.03983186931
0.08041293235
0.05673731757
0.05400266859
0.05343657444
0.05939122555
0.06576328201
0.06234211169
0.04754177439
0.03391771039
0.01160277049
0.02716155448
0.04931478403
0.06500287688
0.06797194092
0.0548396175
0.02873538908
0.0291348854
0.04237310229
0.03856283466
0.02241964546
0.04891894983
0.06067887005
0.05424791514
0.04796233176
0.04686071102
0.05413374608
0.06289521489
0.06405175119
0.0580920531
0.04027688363
0.05394464185
0.06496765345
0.06964522558
0.07146415386
0.06771167383
0.04418422221
0.02298988875
0.03167083905
0.03093954084
0.02001305823
0.05266286666
0.06562852888
0.06277300742
0.05259361267
0.04971844238
0.05246076803
0.06089686947
0.06622719111
0.06678302888
0.06169250742
0.06401501545
0.06557456766
0.06520842563
0.06456912323
0.07493554383
0.07147454542
0.04775138893
0.02251968079
0.01727717169
0.04277284773
0.07716617632
0.06643514589
0.07004115681
0.05907479441
0.05642984197
0.06114459987
0.06991135809
0.0770756201
0.07226552366
0.05893580745
0.06606150799
0.07551486868
0.07600437413
0.06535861758
0.06507228281
0.07545759889
0.07517422589
0.06084036997
0.04640329177
0.07798481788
0.07599247577
0.05665029096
0.06915528917
0.0570236796
0.054766129
0.06653179919
0.07795706291
0.08082955887
0.06522565088
0.03962369705
0.04910478773
0.07809875041
0.08679095262
0.07464189299
0.06297133473
0.0595149841
0.07063898194
0.07608034327
0.07234109588
0.08802730652
0.02763937013
0.07737125359
0.06007302325
0.04346333133
0.03973571208
0.05502294961
0.07108655398
0.06635089048
0.0392734373
0.02665376646
0.01873126645
0.06278530056
0.08094572637
0.07958516551
0.0726252018
0.06298258617
0.05944855595
0.0709774722
0.06918223431
0.04946139971
0.03884622578
0.0614204326
0.03572273984
0.02167204537
0.01595494514
0.02790955329
0.04382176286
0.0373396844
0.01705695924
0.02275089974
0.02153564152
0.03861941298
0.05230343415
0.05766537469
0.05860301094
0.05926150856
0.05790712121
0.06202383076
0.05153679043
0.04436481646
0.02604256067
0.02752578885
0.03827934543
0.03666009336
0.03037118713
0.01809352053
0.003191636772
0.007533336513
0.02003160787
0.01933738114
0.01409253873
0.00810365865
0.02249842203
0.03334035007
0.03839838072
0.02614172148
0.03525396941
0.03943508626
0.003265015686
0.02958749131
0.03083985635
0.04715349774
0.02840958463
0.02012484712
0.01836981966
0.03440189653
0.04583511961
0.03479118236
0.01987428433
0.01930566839
0.01220368456
0.02777284391
0.03775740791
0.04284333538
0.04542672791
0.05162700402
0.05563438652
0.05230287331
0.01598248522
0.03515956212
0.05529275581
0.06143368395
0.04955978653
0.0416224806
0.04617199152
0.06220402163
0.06909026785
0.05498111019
0.02097169675
0.02961836658
0.02969332348
0.05967849484
0.07368115015
0.07478798264
0.06967921942
0.06359708331
0.05757003352
0.0572711869
0.04540523689
0.06223602346
0.0734444245
0.06206233646
0.05952818481
0.05644437115
0.06378792442
0.07630680921
0.08336994889
0.07514259262
0.04948174362
0.03154460383
0.05604452676
0.07931972492
0.08707881123
0.08242199129
0.07170094173
0.06049152665
0.04934475298
0.05308905766
0.06540427553
0.07824609258
0.05208347023
0.05353043793
0.05762937228
0.05648379637
0.06375156636
0.07550302387
0.08494547583
0.08253240777
0.06844837232
0.04028521943
0.0693190902
0.0796097492
0.07575934596
0.06390251444
0.05189934641
0.04073566832
0.03527055239
0.04815593516
0.06833932641
0.04223514489
0.04629514686
0.04388995884
0.04916038953
0.04760841862
0.05374959403
0.06312585867
0.07270789601
0.0737234318
0.0661382754
0.04916812475
0.05975302736
0.06353994403
0.05472776786
0.03954149483
0.02768012334
0.02148501163
0.02461017846
0.04591472882
0.07014928579
0.03983828071
0.06043985084
0.03922629622
0.0412466024
0.03577795102
0.03961402903
0.04922368861
0.05691016059
0.05741085204
0.05414134126
0.0447895484
0.03072398784
0.04041675764
0.03323606882
0.02257489805
0.01837341743
0.01701209986
0.0221512137
0.039259568
0.06616298759
0.05014911487
0.03828772745
0.03710053514
0.03460209043
0.026476526
0.02416024246
0.0333023037
0.04753102662
0.05156721107
0.051063878
0.04381946865
0.02824721399
0.03588438304
0.02918413456
0.02076964967
0.01723270864
0.01556313745
0.01920953952
0.03086788513
0.05559277398
0.07645698146
0.05052236378
0.04667298019
0.03066295266
0.03720803504
0.05139493469
0.04547128277
0.03511112428
0.02433212905
0.01719126968
0.01730782507
0.03012786667
0.04641995929
0.05758849565
0.05661356755
0.05318418748
0.05938787717
0.06130002666
0.02869035146
0.03397877688
0.06350147942
0.0966822705
0.0090316125
0.008065398656
0.04472629361
0.05622008521
0.03704248326
0.01619814347
0.007748937597
0.00994776399
0.008544364878
0.01123204265
0.02556895136
0.04797199533
0.06687544024
0.08000697848
0.07860933459
0.05074592198
0.005639994287
0.002669755256
0.03098842831
0.07600106133
0.01702218471
0.008150596336
0.04648092352
0.04034449468
0.01656860847
0.008771144283
0.01464327968
0.0152025229
0.01386641155
0.01234528635
0.009877430195
0.02820102326
0.06099855687
0.08807339512
0.07032189254
0.02375391871
0.01702466634
0.01684169849
0.007589057644
0.04956981977
0.0360916149
0.0340078215
0.04551626928
0.02407474755
0.006391612523
0.01056439663
0.01235986137
0.01367181353
0.01563821572
0.01569890574
0.01292572663
0.01495075136
0.05251557742
0.08268097331
0.05119770304
0.007668838557
0.03640660646
0.03268102716
0.01224816798
0.0389358997
0.05198049351
0.04814997291
0.04750913886
0.03729846996
0.01889385333
0.00258123054
0.006033424135
0.01011121195
0.01622749472
0.01405867137
0.007597245348
0.01956952542
0.06243211505
0.07536393148
0.03219900481
0.01269342007
0.04008972044
0.0392393056
0.01488812363
0.03514325702
0.052683142
0.05027361985
0.04991447601
0.05228942619
0.04850734804
0.03468117267
0.01670693986
0.001836945
0.006049376756
0.001458818604
0.02179278201
0.05849949334
0.07926357816
0.03829929289
0.005623255666
0.02433719548
0.04756946699
0.03678554322
0.0150349713
0.01549890566
0.05629783096
0.05451576903
0.04835729701
0.04990480386
0.05870269137
0.06367738376
0.05874963362
0.04866152074
0.02645672595
0.04887161743
0.06184326467
0.07904138531
0.08266071708
0.05023961802
0.01028872026
0.01780825957
0.03224715758
0.03113763618
0.008481971522
0.01950246905
0.05573256491
0.06406624627
0.05186717935
0.05037240486
0.06025013847
0.07618581339
0.08269201092
0.07851783363
0.06686477052
0.06902497358
0.07484387358
0.07657007976
0.07737761358
0.07807049152
0.04435240529
0.01037787822
0.01045328543
0.0128759786
0.007753201969
0.05500282444
0.05460780173
0.06847239707
0.05211589477
0.04844543616
0.06146898402
0.07858634984
0.07980084611
0.06129829051
0.03910346981
0.0411718016
0.06403275979
0.07633810059
0.07350656579
0.07531287749
0.07694397855
0.05157417078
0.02546848224
0.0145210573
0.05585388898
0.06391851828
0.04690188084
0.06093100854
0.04026344756
0.03503226884
0.05290526143
0.0738989584
0.06536203967
0.03326197214
0.0122804365
0.01121647909
0.03864653692
0.06287310031
0.06749641372
0.06692514277
0.06903736472
0.07444259768
0.06579276144
0.06545190849
0.08501964586
0.00593571698
0.06205789343
0.04312343803
0.02167061194
0.01543970392
0.02972956808
0.05288646339
0.04010043426
0.0103493467
0.01616020823
0.0138931546
0.008812824727
0.03517584073
0.04776071704
0.05518031218
0.06016246415
0.06581661401
0.07787601319
0.0717662348
0.03451668733
0.01529801919
0.0431222581
0.01694146172
0.0166607713
0.01324040787
0.00548192836
0.02020198448
0.01415945387
0.009696163542
0.01024993124
0.009517322619
0.007172778856
0.005692328581
0.007876390289
0.02021838693
0.0378233484
0.0513214305
0.06268835992
0.05201204873
0.0307494635
0.01531065399
0.00982725429
0.01699158409
0.01819534227
0.01631791209
0.01333081779
0.009165679135
0.0100430886
0.01025376038
0.01026803043
0.006764591404
0.009098862855
0.0121821497
0.01699884998
0.02076218981
0.01486947708
0.01670008766
0.03112259462
0.01463800177
0.006588478628
0.006981352437
0.01760902739
0.01572690999
0.01890304538
0.01571418375
0.006504196471
0.006579529976
0.004631378462
0.01090611171
0.008848002079
0.009266599924
0.008186113808
0.008615077567
0.01109556308
0.01485397701
0.02209530592
0.03857512185
0.04494063456
0.005145311817
0.005234437137
0.02883365052
0.03511381505
0.02577786684
0.02281378076
0.02552082575
0.03702503277
0.04057761865
0.02227349764
0.01506742483
0.017386263
0.0123068599
0.02381324849
0.03846910173
0.04358317743
0.0450566171
0.04823591569
0.05304240593
0.05525131832
0.03111826327
0.0380776618
0.06128486445
0.04666623543
0.04166388233
0.04065233234
0.04913458472
0.06388512737
0.06675341974
0.04525303547
0.0130184509
0.01861340636
0.02261771282
0.05097568216
0.06646529135
0.0684854916
0.06350478494
0.05806746479
0.05072792441
0.05081536733
0.0554276811
0.06464036972
0.03017152047
0.04619237622
0.04733540335
0.04804018898
0.05759893411
0.07216335024
0.0768679433
0.05983020979
0.02836320854
0.01107357068
0.0411380155
0.06421336977
0.06917425564
0.06290266548
0.05267180317
0.04084380743
0.03205006229
0.03926100642
0.0550689572
0.009055570211
0.01055765423
0.03890266641
0.04186481529
0.04232048091
0.05033795494
0.06299783302
0.07133951276
0.06232569631
0.04126759122
0.02024038565
0.04672377356
0.05803804619
0.0513355601
0.03616973683
0.02168556405
0.01286306585
0.01270416882
0.03155123449
0.03435990025
0.009829275712
0.02644059243
0.03097142726
0.03004433136
0.02600435695
0.03059350672
0.04248430835
0.05304302141
0.05221433314
0.04233583923
0.02633791243
0.01027359496
0.02726003761
0.02038080239
0.01075060269
0.006319050158
0.006175048098
0.009065709132
0.02154765974
0.04512523808
0.0165754432
0.00854579243
0.03634880087
0.03015138355
0.02038888206
0.01485148705
0.02288333413
0.04099700761
0.04796908354
0.0450435655
0.03031309336
0.007224166651
0.01994981738
0.0152072948
0.00887952938
0.005747188491
0.005895922114
0.008277302405
0.01684236881
0.04119391853
0.05404020747
0.02711471268
0.06436139274
0.04822228029
0.05474188322
0.05905059742
0.04374643249
0.02329850038
0.01005820926
0.003389482281
0.003490718835
0.01444507803
0.03288115653
0.0539161127
0.06360853055
0.06590832363
0.07500391834
0.07899612706
0.05058459425
0.03841616078
0.06247346387
0.135893747
0.002962940609
0.01131166413
0.03281764744
0.03959982246
0.01564878386
0.002164621043
0.009009088412
0.01058366108
0.006564368165
0.003299029755
0.007099067384
0.03021128143
0.06536833644
0.09556586468
0.0909888724
0.03781005183
0.01088620563
0.001978853147
0.004445003024
0.07818287868
0.002350356476
0.009925464072
0.03180924751
0.01723000172
0.00299020523
0.01263631335
0.01858257692
0.01997500074
0.01658741867
0.01364742953
0.009698733312
0.008759354796
0.04849112529
0.09809241036
0.07017199664
0.003423029751
0.01536859297
0.01987510025
0.009749626442
0.03245340432
0.03854745075
0.03114514196
0.03055699884
0.005140302812
0.004785181728
0.01022920963
0.01648141397
0.02161332646
0.02295040031
0.02058967465
0.01555087884
0.004844090008
0.04001967994
0.09101888183
0.03390240021
0.01273821568
0.04432122476
0.0422156874
0.01624875622
0.0173600815
0.06801108713
0.05548533898
0.04461017545
0.02222762701
0.001758293725
0.00220202895
0.008785570765
0.01599090538
0.02464517213
0.0196053309
0.01059490912
0.003706070266
0.05735332665
0.07973043279
0.01025366744
0.01992190377
0.0524574229
0.04719161046
0.01234186244
0.02024619014
0.0703298068
0.06507971887
0.06099269926
0.05891576309
0.04773606595
0.02565942036
0.009579620804
0.01126474964
0.01514104708
0.007256592079
0.006504546348
0.05488514095
0.09805415943
0.04488573215
0.002499970517
0.02605303238
0.05005495362
0.03742985487
0.01099525335
0.01227599766
0.06843771905
0.06934334646
0.05950577728
0.06296150396
0.07616473419
0.08089141514
0.06723822779
0.04501432695
0.0214603718
0.04097229507
0.0699656884
0.0988398693
0.1100346051
0.06470155972
0.0005010341542
0.02008969124
0.03624780751