/*--------------------------------*- C++ -*----------------------------------*\
  =========                 |
  \\      /  F ield         | OpenFOAM: The Open Source CFD Toolbox
   \\    /   O peration     | Website:  https://openfoam.org
    \\  /    A nd           | Version:  7
     \\/     M anipulation  |
\*---------------------------------------------------------------------------*/
FoamFile
{
    version     2.0;
    format      ascii;
    class       surfaceScalarField;
    location    "60";
    object      phi;
}
// * * * * * * * * * * * * * * * * * * * * * * * * * * * * * * * * * * * * * //

dimensions      [0 3 -1 0 0 0 0];

internalField   nonuniform List<scalar> 
47120
(
3.842626048e-06
1.545929654e-06
1.909662578e-05
-6.644608081e-06
-5.3802676e-06
3.058345773e-06
1.041849203e-06
1.530538989e-05
-5.247501315e-06
1.994853406e-06
9.074206363e-07
1.325973891e-05
-4.880981198e-06
1.138156428e-06
7.363353283e-07
1.157114438e-05
-4.180098299e-06
4.384562626e-07
1.382250872e-07
1.029780366e-05
-2.642357886e-06
-3.279867332e-07
-4.652818387e-07
9.90391165e-06
-1.292682926e-06
-6.448164891e-07
-9.292320367e-07
9.917919886e-06
-5.881665856e-07
-9.310973471e-07
-1.114511388e-06
1.074739098e-05
-3.326480818e-07
-8.428175807e-07
-8.726392637e-07
1.211763531e-05
-4.939499196e-07
-8.069522878e-07
-3.604516009e-07
1.395640242e-05
-9.479077989e-07
-6.783650269e-07
2.785936279e-07
1.586471301e-05
-1.539272665e-06
-4.798866566e-07
7.255658678e-07
1.715807052e-05
-2.163594917e-06
-2.575361391e-07
1.028449862e-06
1.742901501e-05
-2.718309241e-06
-4.946368823e-07
1.074155585e-06
1.707363489e-05
-3.271686547e-06
-8.107155299e-07
1.148859963e-06
1.673756415e-05
-4.301234544e-06
-1.038654016e-06
1.00447132e-06
1.678217941e-05
-5.133789776e-06
-1.089327475e-06
8.133758343e-07
1.661378937e-05
-5.507516342e-06
-1.154069708e-06
7.931571714e-07
1.665391454e-05
-5.774621064e-06
-2.205271616e-06
1.016885903e-06
1.693081654e-05
-5.830876924e-06
2.210843494e-06
1.839493149e-05
-6.345022587e-06
-6.592967196e-06
2.997269451e-06
5.656720329e-07
1.757962313e-05
-6.289943991e-06
2.525917596e-06
2.948985944e-07
1.255186142e-05
1.687054248e-06
3.963046029e-07
1.064806901e-05
5.76776638e-07
-2.497743265e-08
9.817247569e-06
-2.250524909e-07
-5.274959821e-07
8.833107612e-06
-8.452950204e-07
-8.810498505e-07
8.418689721e-06
-9.042820798e-07
-1.168179959e-06
8.449256589e-06
-8.919081661e-07
-1.269011324e-06
9.039112356e-06
-3.789546201e-07
-1.10933535e-06
9.940491227e-06
-4.544305602e-08
-6.002523089e-07
1.156011113e-05
1.808217556e-09
9.418804099e-09
1.343646549e-05
-3.867459356e-08
4.71448535e-07
1.48939838e-05
-1.517461448e-07
6.153457269e-07
1.547127268e-05
-4.116074731e-07
4.822440999e-07
1.540329388e-05
-8.378901153e-07
9.670329832e-08
1.494357648e-05
-9.114624041e-07
-4.804055197e-07
1.44382454e-05
-3.163313707e-07
-1.044186917e-06
1.354228241e-05
-6.62555109e-09
-1.096457018e-06
1.357425984e-05
-9.520097315e-07
-7.384478306e-07
1.459412397e-05
7.243759049e-07
1.661346806e-05
-5.30880606e-06
3.092269242e-06
5.672209241e-07
1.833863514e-05
-6.190765254e-06
2.571776542e-06
4.870116048e-07
1.259032817e-05
1.308759042e-06
2.973008158e-07
1.132050599e-05
1.674056847e-07
1.37586366e-08
9.46249393e-06
-6.815531642e-07
-2.957421606e-07
8.398046532e-06
-1.218012872e-06
-4.506813026e-07
7.778718845e-06
-1.077121728e-06
-5.000557881e-07
7.586060285e-06
-7.759459556e-07
-4.189704666e-07
7.977315545e-06
7.856494954e-08
-2.50578515e-07
8.315497522e-06
6.223873927e-07
5.884671513e-08
9.477327817e-06
5.662083773e-07
3.18010946e-07
1.144863492e-05
1.610429945e-07
4.669673796e-07
1.322469811e-05
-2.946621719e-07
4.023320941e-07
1.427718366e-05
-8.550627749e-07
1.789982653e-07
1.455684551e-05
-1.418582085e-06
-3.050733316e-07
1.414229906e-05
-1.371225018e-06
-8.187608538e-07
1.295505106e-05
-2.127514687e-07
-1.234672534e-06
1.134754678e-05
4.51364126e-07
-1.296932157e-06
1.150442307e-05
-4.950594824e-07
-8.924445544e-07
1.328102565e-05
4.849364278e-07
1.584441639e-05
-4.992022269e-06
3.12565443e-06
5.775887071e-07
1.990998186e-05
-5.724970606e-06
2.275932927e-06
4.749582455e-07
1.422746072e-05
1.074585828e-06
3.187247228e-07
1.180245746e-05
6.358359632e-09
2.919474847e-07
9.830062703e-06
-7.289822303e-07
3.114572868e-07
8.748491837e-06
-1.180464021e-06
4.98522516e-07
8.061126214e-06
-9.488228611e-07
7.272297439e-07
7.934345406e-06
-5.597861347e-07
9.416679552e-07
8.190110726e-06
3.563700814e-07
1.015678118e-06
8.068646248e-06
8.865986811e-07
1.243040609e-06
8.675501216e-06
8.171801426e-07
1.242629561e-06
1.031389645e-05
1.065961062e-07
1.032014727e-06
1.208406979e-05
-5.827899691e-07
8.197564619e-07
1.326891929e-05
-1.376062428e-06
4.715052753e-07
1.382661295e-05
-1.915425458e-06
5.152511864e-08
1.338514623e-05
-1.673598006e-06
-5.339261343e-07
1.189281749e-05
-1.955963531e-07
-1.083708006e-06
1.009836802e-05
7.411535003e-07
-1.198619464e-06
1.047044272e-05
-1.731912171e-07
-6.042068141e-07
1.237765715e-05
7.455510507e-07
1.511421074e-05
-4.418756061e-06
3.164244783e-06
7.964713519e-07
2.092813001e-05
-5.322154272e-06
2.203924965e-06
6.492196184e-07
1.556366727e-05
1.158007894e-06
4.911054154e-07
1.276903676e-05
1.76722391e-07
6.137962827e-07
1.100268153e-05
-4.211944944e-07
9.102180522e-07
1.014584622e-05
-8.832730835e-07
1.345067922e-06
9.475533661e-06
-7.078627995e-07
1.789091326e-06
9.034760269e-06
-4.154251309e-07
2.013901177e-06
8.887557527e-06
5.681265715e-07
2.148728048e-06
7.944582319e-06
9.360173823e-07
2.015851497e-06
8.804091241e-06
6.63767094e-07
1.760395216e-06
9.908943519e-06
-9.073703856e-08
1.3537388e-06
1.113603801e-05
-9.787279447e-07
1.079714788e-06
1.204547189e-05
-1.915549996e-06
7.786344085e-07
1.263544614e-05
-2.586036243e-06
5.210485288e-07
1.21793532e-05
-2.2024301e-06
8.968855805e-08
1.068278894e-05
-2.043681018e-07
-7.435739267e-07
8.80335965e-06
1.321018089e-06
-9.33092067e-07
9.364799612e-06
3.955805255e-07
-1.36201776e-07
1.158206823e-05
9.391264061e-07
1.442552094e-05
-3.687732675e-06
3.211533517e-06
1.112197102e-06
2.090973112e-05
-5.360711164e-06
2.150988016e-06
7.064253726e-07
1.598019067e-05
1.320635422e-06
5.41320057e-07
1.337055016e-05
5.33659664e-07
5.919057649e-07
1.180470116e-05
6.307732544e-08
9.136897734e-07
1.102346107e-05
-4.008648723e-07
1.283170504e-06
1.036679989e-05
-4.645003016e-07
1.726195636e-06
9.888821462e-06
-2.852170518e-07
1.957079958e-06
9.710470149e-06
4.183733196e-07
2.106168055e-06
9.035419999e-06
6.694340311e-07
1.824132861e-06
9.817235596e-06
2.495013718e-07
1.445375588e-06
1.037291651e-05
-4.591597353e-07
1.136021113e-06
1.086895201e-05
-1.4877663e-06
9.567598938e-07
1.125262095e-05
-2.739481864e-06
1.130795693e-06
1.117580701e-05
-3.594395242e-06
1.560021219e-06
1.021399654e-05
-3.319404914e-06
2.368623851e-06
7.737347193e-06
4.082642458e-09
3.196627173e-06
2.959219634e-06
2.309206755e-06
2.237137531e-06
4.803222093e-06
1.095501305e-06
1.955677397e-06
9.552927073e-06
1.667542647e-06
1.311902021e-05
-2.642767295e-06
3.10693474e-06
8.205763771e-07
1.943134646e-05
-5.555546061e-06
2.119283107e-06
3.308562035e-07
1.501585671e-05
1.39717883e-06
1.5067379e-07
1.271412207e-05
8.722113522e-07
1.732976202e-07
1.127897663e-05
4.062143737e-07
3.685269942e-07
1.057834947e-05
5.145256456e-09
5.600406696e-07
1.005712769e-05
-2.434103422e-07
7.898905994e-07
9.803552315e-06
-1.974086543e-07
8.938944311e-07
9.761089957e-06
1.392994125e-07
9.658140388e-07
9.687005028e-06
2.738997314e-07
7.99570832e-07
1.030999715e-05
-5.769487664e-08
5.759404382e-07
1.050037445e-05
-6.386163364e-07
4.983725252e-07
1.071675919e-05
-1.314927055e-06
4.887383136e-07
1.10406336e-05
-2.328472288e-06
8.865858864e-07
1.107797443e-05
-2.831982014e-06
1.659754385e-06
1.042280366e-05
-2.591501379e-06
2.783783773e-06
8.989540067e-06
-8.462427304e-07
3.941140236e-06
7.122806817e-06
1.74742242e-06
4.17030125e-06
4.779448722e-06
8.448278007e-07
3.037072682e-06
9.316980594e-06
1.792727756e-06
1.284540009e-05
-2.339129027e-06
2.994240856e-06
5.582480074e-07
1.762573101e-05
-5.607517717e-06
2.120481383e-06
-1.144592291e-08
1.380802756e-05
1.47154942e-06
-2.819793751e-07
1.178342011e-05
1.030214937e-06
-2.523066074e-07
1.057772345e-05
5.514689361e-07
-1.675600845e-07
9.83731346e-06
1.897391567e-07
-8.780817264e-08
9.418408568e-06
-1.568347144e-07
-1.376335641e-07
9.28916501e-06
-1.712347184e-07
-3.246152894e-07
9.383608576e-06
1.0746329e-08
-5.999121823e-07
9.656351241e-06
4.679036831e-08
-6.297995944e-07
1.046631596e-05
-1.323151075e-07
-6.056564296e-07
1.087955825e-05
-5.713097768e-07
-5.495617233e-07
1.127867353e-05
-8.959999726e-07
-4.451835032e-07
1.150604098e-05
-1.550641719e-06
-8.673712654e-09
1.160286898e-05
-1.765992525e-06
8.719786473e-07
1.105265817e-05
-1.54763515e-06
2.057675799e-06
1.001270818e-05
-6.206692042e-07
3.172546362e-06
9.059289377e-06
8.139281456e-07
3.635403948e-06
7.810249345e-06
1.164276722e-07
2.698247475e-06
1.005833078e-05
1.182261191e-06
1.270290207e-05
-2.357331365e-06
2.742586469e-06
-4.438762684e-08
1.597314394e-05
-5.085732552e-06
2.000680041e-06
-7.34700926e-07
1.275308368e-05
1.554118707e-06
-1.116835556e-06
1.107387837e-05
1.127380354e-06
-1.182339177e-06
1.009641542e-05
6.206467362e-07
-1.114295052e-06
9.516921503e-06
1.171169352e-07
-1.064532149e-06
9.221645075e-06
-3.635727575e-07
-1.289672518e-06
9.216548006e-06
-4.829622914e-07
-1.601848803e-06
9.137684463e-06
-1.051203733e-07
-1.930774328e-06
9.317048409e-06
1.869638715e-08
-1.645676879e-06
1.071740622e-05
-1.015108299e-07
-1.387826094e-06
1.194601051e-05
-4.553336213e-07
-1.276783016e-06
1.274648035e-05
-4.288940688e-07
-1.148983696e-06
1.298670331e-05
-6.49405599e-07
-7.962434248e-07
1.285254793e-05
-6.33790717e-07
1.23560065e-08
1.221356727e-05
-5.688401151e-07
9.418184762e-07
1.130455839e-05
-2.294879055e-07
1.764411591e-06
1.046569366e-05
9.827831495e-08
2.008319941e-06
9.713421513e-06
-5.689531081e-07
1.297490045e-06
1.060364888e-05
1.666773042e-07
1.263879689e-05
-2.718926169e-06
2.375209798e-06
-4.88875727e-07
1.466905403e-05
-4.245001052e-06
1.755396698e-06
-1.265356216e-06
1.197857268e-05
1.560391815e-06
-1.750250724e-06
1.06117563e-05
1.212567311e-06
-1.946885162e-06
9.764779172e-06
6.714030214e-07
-1.904070012e-06
9.460805872e-06
-1.045758252e-07
-1.795176516e-06
9.343807674e-06
-6.632349108e-07
-2.008938204e-06
9.314888281e-06
-8.284628115e-07
-2.4303532e-06
8.995350685e-06
-5.023218397e-08
-2.794826507e-06
8.847172059e-06
1.210006656e-07
-2.331278883e-06
1.078407776e-05
-7.592722871e-08
-2.019950721e-06
1.294493262e-05
-3.584253183e-07
-1.864802513e-06
1.443847864e-05
-8.70548844e-08
-1.690146066e-06
1.48651489e-05
1.325017895e-07
-1.332351823e-06
1.448305831e-05
2.236316921e-07
-5.861816183e-07
1.324930274e-05
1.38313523e-07
1.094041288e-07
1.199073598e-05
-7.024575254e-08
5.469143543e-07
1.097179707e-05
-3.168623623e-07
5.915882426e-07
1.01848436e-05
-1.253460711e-06
8.092963226e-08
1.065113503e-05
-6.43828393e-07
1.212582487e-05
-3.047527749e-06
1.98034713e-06
-6.001164195e-07
1.38675705e-05
-4.022947022e-06
1.405970729e-06
-1.582371517e-06
1.154169793e-05
1.44371134e-06
-2.141743351e-06
1.031670088e-05
1.27701322e-06
-2.358621184e-06
9.535654723e-06
7.679096686e-07
-2.230552847e-06
9.34603146e-06
-3.217406539e-07
-2.076205562e-06
9.404203315e-06
-1.067039104e-06
-2.080468496e-06
9.120789874e-06
-1.179654076e-06
-2.368622224e-06
8.412503847e-06
3.31517235e-08
-2.684476362e-06
7.982996645e-06
2.259224911e-07
-1.918589855e-06
1.023195609e-05
-4.758910665e-08
-1.501830077e-06
1.291577026e-05
-2.418984189e-07
-1.313516902e-06
1.504230813e-05
2.481927415e-07
-1.121190278e-06
1.623818577e-05
8.456145803e-07
-1.044869021e-06
1.636006199e-05
8.314956046e-07
-8.164075239e-07
1.482522014e-05
4.690494463e-07
-3.948038545e-07
1.259755802e-05
-1.247776882e-07
-1.776444892e-07
1.115991342e-05
-7.873404249e-07
-6.15095346e-08
1.006182381e-05
-1.823773646e-06
-1.650292834e-07
1.010529876e-05
-1.18697e-07
1.12246518e-05
-3.673749879e-06
1.121591827e-06
-6.480581628e-07
1.308579094e-05
-2.341895383e-06
9.032567289e-07
-1.298912097e-06
1.104577847e-05
1.290401417e-06
-1.579465092e-06
9.888672174e-06
1.425661413e-06
-1.790127133e-06
8.996617684e-06
9.102825887e-07
-1.758843559e-06
8.720919775e-06
-3.490170914e-07
-1.704686747e-06
8.872884748e-06
-1.362518601e-06
-1.610158814e-06
8.490945964e-06
-1.431939488e-06
-1.712941209e-06
7.50717139e-06
3.461606551e-07
-1.89946996e-06
6.353528889e-06
5.355173427e-07
-7.857840858e-07
8.886949791e-06
7.46525139e-08
-3.709106979e-07
1.125032781e-05
-7.609430637e-08
-1.643094541e-07
1.320381642e-05
3.404486643e-07
-6.056505538e-08
1.479218764e-05
1.11181813e-06
-1.002772407e-07
1.568099273e-05
1.260577362e-06
-3.201673656e-07
1.509703157e-05
6.84060956e-07
-3.812892172e-07
1.326851024e-05
-9.969261928e-10
-3.816398361e-07
1.166192864e-05
-8.813294329e-07
-3.643144917e-07
1.053627791e-05
-2.219707073e-06
-3.626956572e-07
1.079859642e-05
5.331857353e-07
1.230784992e-05
-5.388773971e-06
7.033350796e-07
1.613797353e-08
1.218075933e-05
-1.852650138e-06
6.192519134e-07
2.111067047e-07
9.873480368e-06
1.122658808e-06
3.105814159e-07
8.876242891e-06
1.457392716e-06
1.631159881e-07
8.100163998e-06
9.44403729e-07
1.250955986e-08
7.787550438e-06
-3.222484952e-07
-1.807143666e-07
7.984982891e-06
-1.61738137e-06
-1.287565256e-07
7.599815273e-06
-1.641118306e-06
3.401279379e-07
5.85663563e-06
1.484401534e-06
1.30237345e-06
1.742763735e-06
1.110460274e-06
1.033966421e-06
7.110705556e-06
3.512583096e-07
1.277853385e-06
8.63197926e-06
6.095375074e-08
1.594346379e-06
9.65568997e-06
3.189564869e-07
1.619621517e-06
1.115595827e-05
1.02490714e-06
1.33846449e-06
1.257222275e-05
1.293064944e-06
7.368989325e-07
1.351906282e-05
7.40025635e-07
2.439861412e-07
1.299910716e-05
7.849707182e-08
1.24773802e-07
1.154328698e-05
-6.020303469e-07
2.172388905e-07
1.004610001e-05
-1.017739241e-06
3.119647193e-07
9.337300218e-06
8.774554716e-08
1.266701234e-05
-3.733636744e-06
8.72743429e-07
3.233478522e-07
1.308485949e-05
-2.715484591e-06
6.291806951e-07
8.981570787e-07
1.082859537e-05
9.53558626e-07
1.044834291e-06
9.898276269e-06
1.178485082e-06
9.173832659e-07
9.53590193e-06
6.775433537e-07
6.780027278e-07
9.410640533e-06
-3.052480487e-07
6.246649385e-07
9.173996703e-06
-1.120200285e-06
7.515378292e-07
8.18682214e-06
-7.538671212e-07
1.246523796e-06
6.536368405e-06
1.364680503e-06
1.841357529e-06
5.088935292e-06
1.416217594e-06
1.795927158e-06
6.900106381e-06
8.308427405e-07
1.933041552e-06
8.19183449e-06
2.926299211e-07
2.047151398e-06
9.378534367e-06
2.399110318e-07
1.948272128e-06
1.091648384e-05
5.12538875e-07
1.559454021e-06
1.242264279e-05
8.04152808e-07
1.019518772e-06
1.355180423e-05
6.112990515e-07
4.88260206e-07
1.343355384e-05
2.168206267e-07
2.628605937e-07
1.229763199e-05
-4.225577383e-07
6.736779635e-08
1.103395081e-05
-1.099708296e-06
-2.057982257e-07
1.048261303e-05
-1.051717319e-06
1.265923945e-05
-3.778798729e-06
1.194840447e-06
-1.143371548e-07
1.38038444e-05
-3.808722487e-06
7.161038453e-07
8.89706213e-07
1.153758997e-05
8.062875304e-07
1.024017374e-06
1.075460908e-05
9.308995125e-07
1.027831641e-06
1.060312051e-05
5.645553915e-07
8.377959872e-07
1.042812972e-05
-2.374511062e-07
9.089267874e-07
9.955630131e-06
-6.931033789e-07
1.214447125e-06
8.791705994e-06
-2.69785176e-07
1.701682395e-06
7.12460902e-06
1.514971046e-06
2.084882209e-06
5.66667386e-06
1.657722678e-06
1.958077716e-06
7.081348501e-06
1.103085795e-06
1.86318881e-06
8.157702946e-06
3.92477989e-07
1.683668487e-06
9.318553004e-06
4.346313752e-08
1.448308117e-06
1.067779681e-05
9.877439707e-08
1.070834663e-06
1.207362254e-05
3.121882263e-07
7.600097941e-07
1.290454534e-05
3.820004202e-07
4.513778442e-07
1.282341912e-05
1.642728862e-08
1.25663682e-07
1.216690629e-05
-7.159456433e-07
-3.355790476e-07
1.14627489e-05
-1.677090772e-06
-1.067105507e-06
1.120089213e-05
-2.278190853e-06
1.320003401e-05
-4.844487488e-06
1.704860605e-06
-7.054663397e-07
1.406214589e-05
-5.299428374e-06
9.257774227e-07
3.438917818e-07
1.180425007e-05
8.232599383e-07
4.818258388e-07
1.126419927e-05
7.817724943e-07
5.636472791e-07
1.128909447e-05
5.936195704e-07
5.776650209e-07
1.117431896e-05
1.269140726e-08
7.19763359e-07
1.065387349e-05
-2.656810071e-07
1.058920066e-06
9.650508489e-06
1.688540289e-08
1.550497131e-06
8.313575749e-06
1.475399172e-06
2.019046378e-06
6.795588568e-06
1.585551374e-06
1.752194367e-06
7.882844617e-06
1.001845287e-06
1.450026308e-06
8.570428409e-06
2.861454642e-07
1.089124937e-06
9.461669116e-06
-2.051011351e-07
7.820207454e-07
1.056111311e-05
-1.381054605e-07
5.419000741e-07
1.169565581e-05
2.332993521e-08
2.869863727e-07
1.221594372e-05
4.19216815e-08
9.076443765e-09
1.192613312e-05
-4.33988691e-07
-3.605477581e-07
1.166243697e-05
-1.39806738e-06
-9.541561076e-07
1.149910765e-05
-2.583517922e-06
-2.17618249e-06
1.195268931e-05
-3.875916466e-06
1.39011467e-05
-5.607283382e-06
2.002696035e-06
-1.425076203e-06
1.443177075e-05
-6.066403422e-06
1.077669858e-06
-4.536983499e-07
1.234068755e-05
9.454520503e-07
-1.86587406e-07
1.189104231e-05
8.556696627e-07
-7.851043552e-08
1.188355278e-05
7.421572808e-07
1.888623736e-08
1.185833928e-05
3.345149427e-07
2.315866279e-07
1.143428969e-05
1.949399035e-07
6.108849718e-07
1.055346824e-05
4.040982315e-07
9.239767382e-07
9.431713424e-06
1.262010509e-06
1.212369453e-06
8.22707594e-06
1.243048686e-06
9.110572683e-07
8.755792027e-06
6.362521485e-07
6.679804366e-07
9.119959785e-06
1.261332177e-08
4.762775336e-07
9.582431038e-06
-4.113134666e-07
3.022483554e-07
1.00999584e-05
-3.804432271e-07
2.282635269e-07
1.088564148e-05
-2.641366831e-07
7.965543535e-08
1.125826875e-05
-3.92866967e-07
-1.518762248e-07
1.098502592e-05
-1.035260529e-06
-5.08221638e-07
1.119150274e-05
-2.51816982e-06
-1.08537976e-06
1.165225532e-05
-3.981108495e-06
-2.375712167e-06
1.2103794e-05
-4.237488394e-06
1.261697145e-05
-5.837294183e-06
2.288729644e-06
-2.061848444e-06
1.535299162e-05
-6.49312891e-06
1.288646614e-06
-1.245750948e-06
1.33232995e-05
1.121172489e-06
-9.867266706e-07
1.289771491e-05
1.033262132e-06
-8.150690254e-07
1.288589633e-05
9.856840935e-07
-5.591470654e-07
1.27913087e-05
7.311043387e-07
-3.542792138e-07
1.216010911e-05
5.09138031e-07
-7.936213969e-08
1.118067018e-05
6.502396008e-07
7.374988809e-08
1.015067629e-05
1.011510763e-06
1.890694191e-07
9.23762053e-06
9.512750939e-07
-3.091198298e-08
9.342381632e-06
4.167939131e-07
-1.658932386e-07
9.480595111e-06
-1.712166504e-07
-2.601484636e-07
9.657536565e-06
-5.142199101e-07
-3.131688732e-07
9.715762984e-06
-5.539251126e-07
-3.379101289e-07
1.020574521e-05
-5.552698843e-07
-4.936886281e-07
1.047783451e-05
-7.52726682e-07
-6.564869903e-07
1.037828878e-05
-1.662865239e-06
-7.750002213e-07
1.09615579e-05
-3.686044752e-06
-7.664000094e-07
1.170015585e-05
-5.591332978e-06
-7.108139274e-07
1.112575708e-05
-6.084995743e-07
7.262860622e-06
-5.748906698e-06
2.392671173e-06
-3.206111689e-06
1.698707413e-05
-6.280539474e-06
1.477065411e-06
-2.405027655e-06
1.511045316e-05
1.378839858e-06
-2.028674116e-06
1.456057367e-05
1.351644978e-06
-1.754142299e-06
1.420841443e-05
1.241838135e-06
-1.452578661e-06
1.379823432e-05
1.045234499e-06
-1.120333769e-06
1.282727402e-05
7.75027497e-07
-9.263934248e-07
1.153098591e-05
7.76402e-07
-9.943009582e-07
1.058951355e-05
8.167704725e-07
-1.057619595e-06
1.001525914e-05
7.530689271e-07
-1.08837753e-06
9.921563186e-06
2.787994142e-07
-1.005130516e-06
1.001184996e-05
-2.32843042e-07
-9.005375794e-07
9.880575262e-06
-5.732307456e-07
-1.007186379e-06
9.581353463e-06
-7.340360062e-07
-1.195211797e-06
9.90947608e-06
-6.886125449e-07
-1.389444744e-06
1.017625505e-05
-7.461530324e-07
-1.650112863e-06
1.036377317e-05
-1.140439857e-06
-1.945240864e-06
1.125539115e-05
-2.409630345e-06
-2.094828985e-06
1.257711122e-05
-4.145904237e-06
-1.977743336e-06
1.388211077e-05
-1.793850874e-06
1.400023413e-05
-6.307713066e-06
2.961518859e-06
1.998569756e-05
-6.263151267e-06
-6.186115821e-06
2.303248636e-06
1.795943083e-05
-5.90744223e-06
2.164918684e-06
1.711430535e-05
-5.532854947e-06
2.111433868e-06
1.615274315e-05
-4.852345178e-06
1.790567532e-06
1.510500563e-05
-4.112573558e-06
1.286408429e-06
1.383443119e-05
-3.333880521e-06
8.312292353e-07
1.254486973e-05
-2.716888687e-06
7.721099306e-07
1.195694711e-05
-2.798379973e-06
7.090100705e-07
1.164441934e-05
-2.811101749e-06
7.506129982e-07
1.152086992e-05
-2.564516298e-06
3.739841188e-07
1.137314783e-05
-2.253000752e-06
-3.002552883e-07
1.093646599e-05
-2.061374907e-06
-7.702220953e-07
1.045669887e-05
-2.355752027e-06
-9.265087036e-07
1.070936711e-05
-3.087758709e-06
-1.027575165e-06
1.105976379e-05
-3.972547267e-06
-1.244053457e-06
1.147220061e-05
-4.981735292e-06
-1.611847721e-06
1.253777321e-05
-6.119775386e-06
-2.513351261e-06
1.378852984e-05
-6.68330894e-06
-4.033914236e-06
1.573126494e-05
-6.817378985e-06
1.731299762e-05
-7.12484392e-06
-6.66130519e-06
6.405659849e-07
-1.066265991e-06
6.885828545e-06
3.944325115e-07
1.955707368e-06
5.745654352e-07
-2.231765818e-06
5.051416274e-06
3.650248856e-06
-1.249321749e-07
-1.710884962e-06
4.063687042e-06
3.536974205e-06
-6.844391871e-07
-1.47965784e-06
3.27984019e-06
2.800651174e-06
-9.711622561e-07
-2.08081703e-06
2.479552634e-06
2.889235051e-06
-1.236508368e-06
-2.916904461e-06
2.121070177e-06
3.045507706e-06
-8.041543693e-07
-3.564188483e-06
1.712921982e-06
3.040888467e-06
-2.910079405e-07
-4.091705632e-06
1.957947268e-06
3.213627085e-06
8.254153822e-07
-4.36958569e-06
2.492672629e-06
3.315477715e-06
1.281877577e-06
-3.802124915e-06
3.718685592e-06
2.805108801e-06
9.704648991e-07
-2.714688205e-06
4.965240515e-06
2.152500425e-06
1.704470906e-07
-1.566324852e-06
5.699001391e-06
1.392240465e-06
-1.369718744e-07
-6.095537158e-07
5.658942688e-06
6.580487523e-07
-3.135940784e-07
-3.080258054e-07
5.677182104e-06
4.463613846e-07
-4.457829846e-07
-5.70351586e-07
5.997029534e-06
9.404465715e-07
-7.539812068e-07
-1.655071471e-06
6.784961208e-06
1.7303178e-06
-1.312164075e-07
-2.931140852e-06
6.342299417e-06
2.66054223e-06
5.905384722e-07
-3.181935742e-06
6.724285075e-06
2.74973969e-06
3.055747409e-07
-2.415195609e-06
7.61866813e-06
2.513082098e-06
-8.362374879e-07
8.149533426e-06
1.057920747e-06
8.064114458e-07
-6.461923002e-07
-4.630791407e-08
5.726852261e-06
1.36551106e-06
3.770938088e-07
-6.172018229e-07
1.380074438e-06
5.281199308e-07
-7.109887515e-08
8.7126201e-07
-8.874724683e-07
-1.081427486e-06
2.517284927e-06
-1.711181059e-06
-1.675101606e-06
1.606579202e-06
-2.1185603e-06
-2.466582005e-06
7.178193278e-07
-1.652439347e-06
-3.160804265e-06
-1.495517838e-07
-7.746908755e-07
-3.571462942e-06
-3.789990051e-07
1.215843765e-06
-3.949062995e-06
-3.899124494e-07
2.43484548e-06
-3.582106747e-06
1.084193139e-06
2.343647644e-06
-2.596505667e-06
3.126093281e-06
1.31615522e-06
-1.60689698e-06
4.730131156e-06
2.124014067e-07
-9.044757453e-07
5.389443167e-06
-8.133528728e-07
-7.929194819e-07
5.664245727e-06
-1.64986782e-06
-1.47483697e-06
5.881948276e-06
-1.625311253e-06
-3.157356912e-06
5.461824061e-06
5.082481911e-07
-4.910482326e-06
3.560891162e-06
2.329468692e-06
-5.146539775e-06
4.130571617e-06
2.187556294e-06
-4.104402072e-06
6.199784409e-06
-2.082999478e-06
7.405933851e-06
3.070712354e-06
-1.563250019e-07
1.482569871e-06
5.543368031e-06
9.19757305e-07
1.199277259e-06
2.099054175e-06
4.520522492e-07
-3.211210917e-07
9.199156908e-07
3.149687083e-06
-1.653198435e-06
2.112714217e-07
1.672584933e-06
-2.63946356e-06
-2.349780378e-07
4.318891674e-07
-3.003717129e-06
-5.877640403e-07
-1.129511047e-06
-2.232214211e-06
-7.849467931e-07
-2.563731967e-06
-1.224820515e-06
-9.566771735e-07
-2.688894049e-06
1.506805763e-06
-1.330232424e-06
-3.311579982e-06
3.525782768e-06
-1.277484184e-06
-2.18914122e-06
3.513640464e-06
-1.153301971e-06
6.863852299e-07
2.183479868e-06
-9.26991935e-07
3.216387246e-06
2.900854518e-07
-9.455171159e-07
4.61630486e-06
-1.749061487e-06
-1.147620976e-06
5.268643531e-06
-3.421242299e-06
-2.069536145e-06
5.11816199e-06
-3.276177744e-06
-3.477799009e-06
3.222419724e-06
4.272779095e-07
-4.8187493e-06
-3.59490654e-07
3.419922906e-06
-5.073587797e-06
3.89703921e-07
3.15999851e-06
-4.152579814e-06
4.04658839e-06
-2.211909497e-06
6.300847236e-06
3.373481493e-06
-1.684960926e-07
1.083841028e-06
7.325501972e-06
9.430164899e-07
3.33172636e-07
1.868475705e-06
4.075010018e-06
-9.046859503e-07
1.363877863e-06
3.44569935e-06
-1.947705752e-06
1.474742396e-06
1.591624382e-06
-2.807734417e-06
1.673758368e-06
-9.712991876e-08
-3.035464434e-06
1.920252088e-06
-1.979504346e-06
-2.289185156e-06
2.097192745e-06
-2.9195205e-06
-1.453808317e-06
2.163418695e-06
-2.816215953e-06
1.416766272e-06
1.599753597e-06
-3.844755692e-06
3.662418991e-06
2.129283191e-06
-3.65638057e-06
3.800516673e-06
1.462313282e-06
-9.917938633e-07
2.172895125e-06
4.693760064e-07
2.101079211e-06
-6.16162001e-08
-3.461046508e-07
3.829076916e-06
-2.828981913e-06
-1.081739439e-06
4.877035528e-06
-4.748455478e-06
-1.998214255e-06
4.263931726e-06
-4.26126732e-06
-3.211351652e-06
1.6548491e-06
5.886302446e-07
-4.347071927e-06
-2.098102402e-06
4.265123714e-06
-5.200533232e-06
-8.069728433e-07
3.966430216e-06
-3.805792318e-06
3.067721722e-06
-1.778202838e-06
5.799920984e-06
3.92916388e-06
1.421671999e-07
3.878930623e-07
7.72901959e-06
5.348705696e-07
2.05580262e-07
1.078427749e-06
5.289931302e-06
-5.813788826e-07
1.196662914e-06
3.953620743e-06
-1.448930287e-06
1.653591615e-06
2.70128697e-06
-2.307336346e-06
2.246105495e-06
1.575743619e-06
-2.768978358e-06
2.957657693e-06
1.21733552e-07
-2.222683871e-06
3.663739863e-06
-1.421205891e-06
-1.834537272e-06
4.128297292e-06
-1.798775864e-06
1.816022458e-06
4.891062988e-06
-3.937689514e-06
3.066048428e-06
4.353371061e-06
-2.603304978e-06
2.848988372e-06
3.280136223e-06
-6.112732856e-07
1.284473024e-06
1.86248306e-06
1.745770197e-06
-1.040315803e-06
8.090633194e-07
3.108105187e-06
-4.052342565e-06
-1.478100172e-07
4.165267656e-06
-6.163477628e-06
-9.260896817e-07
3.149130998e-06
-5.482694995e-06
-2.158776583e-06
3.796001568e-07
7.106963538e-07
-4.71062464e-06
-2.931902201e-06
5.872851552e-06
-7.282270992e-06
-1.064984708e-06
5.230041618e-06
-3.532669018e-06
2.710025773e-06
-1.163397426e-06
5.569521063e-06
4.891400736e-06
7.924302804e-07
-3.699941082e-07
7.39604145e-06
-3.524947306e-07
4.427231762e-07
-2.889140037e-07
5.509567106e-06
-7.223518358e-08
-7.532405566e-08
4.165912663e-06
-7.360809446e-07
3.012004671e-07
3.317992936e-06
-1.472158994e-06
9.804199939e-07
2.795998098e-06
-1.963802644e-06
1.817279202e-06
2.00206484e-06
-1.698232614e-06
2.801522297e-06
9.579472483e-07
-1.193334142e-06
3.371199513e-06
2.97239516e-07
1.247710969e-06
4.186094921e-06
-1.547084251e-06
1.952396441e-06
3.560553041e-06
-5.743943367e-08
1.338235953e-06
2.571528421e-06
1.400368776e-06
-1.775403266e-07
1.745052359e-06
2.39060534e-06
-2.927643396e-06
1.31118721e-06
3.057033408e-06
-6.330747221e-06
1.663886587e-06
2.627737077e-06
-9.042014963e-06
2.721160495e-06
1.354220999e-07
-9.383408019e-06
4.760066455e-06
-3.456673382e-06
4.493221784e-07
7.14123081e-06
-9.127373594e-06
1.010697752e-05
3.01910019e-06
-7.37978258e-06
7.190366473e-06
1.88682448e-06
-3.8452491e-07
1.50114923e-06
3.744307042e-06
5.863576101e-06
1.143599007e-06
-1.093597012e-06
6.737188746e-06
-1.028122314e-06
7.10304822e-07
-1.322940032e-06
4.8954209e-06
3.001131437e-07
-1.231151765e-06
3.489874955e-06
-4.086195336e-08
-8.407578293e-07
2.535844304e-06
-6.598195927e-07
-3.889613182e-07
2.355678434e-06
-1.024987509e-06
2.276796321e-07
2.152364948e-06
-1.106337133e-06
8.305716824e-07
1.961298558e-06
-6.238330871e-07
1.125091438e-06
1.682267489e-06
6.844713864e-07
1.508782008e-06
9.688786297e-07
9.062551594e-07
1.412455954e-06
1.769388334e-06
4.88596009e-07
1.226356223e-06
2.265519652e-06
-5.557495477e-07
1.220010692e-06
2.520154693e-06
-2.436604725e-06
1.193839635e-06
3.08085073e-06
-5.052733093e-06
2.127969167e-06
3.214999691e-06
-6.948724651e-06
3.836219605e-06
1.599956586e-06
-6.731226928e-06
6.358823575e-06
-1.091485516e-06
-3.032471951e-06
9.001808067e-06
-3.394725862e-06
7.713996456e-06
1.12485631e-05
-7.207982528e-06
6.056845856e-06
6.166117829e-06
-6.740521724e-07
2.996996612e-06
3.625923997e-06
5.139366056e-06
1.765305133e-06
-1.446330518e-06
6.060908719e-06
-2.028422037e-06
1.007657588e-06
-1.844126776e-06
4.393378412e-06
7.261486686e-07
-1.954604764e-06
2.913607228e-06
3.172837181e-07
-1.67175336e-06
2.084351228e-06
-2.056395798e-07
-1.288810758e-06
1.729858326e-06
-5.36262815e-07
-9.799791586e-07
1.632036107e-06
-7.763419613e-07
-9.459617156e-07
1.700416259e-06
-3.634359387e-07
-1.439558046e-06
1.683785694e-06
5.966381413e-07
-1.969890489e-06
1.605488245e-06
7.003677088e-07
-1.371812165e-06
2.155393853e-06
4.877266114e-07
-5.113505891e-07
2.387644252e-06
-4.091796152e-07
5.008993591e-08
2.826470098e-06
-1.44147085e-06
4.022323266e-07
3.025593553e-06
-3.323948826e-06
1.281309275e-06
3.621029059e-06
-4.450784233e-06
3.054882999e-06
3.037867784e-06
-4.217661237e-06
5.517239883e-06
1.427572493e-06
-1.688692581e-06
7.789038902e-06
-2.789348723e-07
3.795096254e-06
8.904419175e-06
-2.000435018e-06
3.873562763e-06
5.450992942e-06
2.138474844e-06
2.077330598e-06
4.749970525e-06
3.898864511e-06
2.00628108e-06
-2.102806863e-06
5.482010313e-06
-2.77752582e-06
1.172884736e-06
-2.717904479e-06
3.8818181e-06
1.094466563e-06
-3.108000844e-06
2.552452177e-06
6.789683097e-07
-3.127433992e-06
1.938233895e-06
3.306015287e-08
-2.716983634e-06
1.793502455e-06
-5.811855571e-07
-2.471504137e-06
1.762740861e-06
-1.320252646e-06
-2.922984545e-06
1.860437494e-06
-9.030635825e-07
-3.769948782e-06
1.341266889e-06
9.00232406e-07
-4.71838049e-06
6.97637751e-07
1.480014563e-06
-3.623489292e-06
1.880912466e-06
1.030350443e-06
-2.268462325e-06
2.958197785e-06
3.151657709e-09
-1.279980998e-06
3.676820214e-06
-5.61411194e-07
-6.686683564e-07
3.493646508e-06
-1.578928088e-06
3.96034061e-08
3.652400322e-06
-2.110164135e-06
1.277085213e-06
3.782439641e-06
-2.098207848e-06
2.913285371e-06
3.507984394e-06
-8.129017415e-07
4.446068691e-06
2.857160776e-06
1.409669608e-06
4.902321264e-06
2.065920008e-06