/*--------------------------------*- C++ -*----------------------------------*\
  =========                 |
  \\      /  F ield         | OpenFOAM: The Open Source CFD Toolbox
   \\    /   O peration     | Website:  https://openfoam.org
    \\  /    A nd           | Version:  7
     \\/     M anipulation  |
\*---------------------------------------------------------------------------*/
FoamFile
{
    version     2.0;
    format      ascii;
    class       volScalarField;
    location    "60";
    object      qr;
}
// * * * * * * * * * * * * * * * * * * * * * * * * * * * * * * * * * * * * * //

dimensions      [1 0 -3 0 0 0 0];

internalField   uniform 0;

boundaryField
{
    walls
    {
        type            calculated;
        value           nonuniform List<scalar> 
960
(
-334842.7717
-350206.3421
-359707.6043
-365526.7237
-338992.7034
-331549.7178
-336801.8644
-324002.575
-320036.5796
-330149.7413
-336592.9156
-353861.3113
-367386.2235
-368442.4329
-364744.4204
-353620.7504
-357062.6089
-342563.5088
-337316.6304
-333954.5443
-493702.0236
-521669.4407
-535003.8209
-541157.1915
-482874.7231
-482467.1659
-506126.7404
-476345.5225
-464647.2609
-486089.8627
-489097.9466
-525873.5252
-545041.5092
-520614.8465
-520125.3916
-502822.7541
-525211.0228
-484506.7573
-475467.6208
-486196.7151
-42349.71743
-72120.81609
-128437.7533
-45139.58566
-894.3538962
-894.3538962
-40255.97389
-89003.51205
-39410.09377
-894.3538962
-894.3538962
-78790.91799
-80248.55923
-894.3538962
-894.3538962
-79909.46954
-58400.84655
-894.3538962
-894.3538962
-46479.34346
-894.3538962
-894.3538962
-17712.56564
-894.3538962
-894.3538962
-894.3538962
-894.3538962
-10798.05699
-4746.053527
-894.3538962
-894.3538962
-16187.75691
-16662.14788
-894.3538962
-894.3538962
-10577.70557
-894.3538962
-894.3538962
-894.3538962
-894.3538962
-894.3538962
-894.3538962
-3278.593254
-894.3538962
-894.3538962
-894.3538962
-894.3538962
-2630.678711
-894.3538962
-894.3538962
-894.3538962
-5019.967279
-4832.46877
-894.3538962
-894.3538962
-894.3538962
-894.3538962
-894.3538962
-894.3538962
-894.3538962
-894.3538962
-894.3538962
-894.3538962
-894.3538962
-894.3538962
-924.8813544
-894.3538962
-894.3538962
-894.3538962
-894.3538962
-894.3538962
-2279.133982
-2295.548216
-894.3538962
-894.3538962
-894.3538962
-894.3538962
-894.3538962
-894.3538962
-894.3538962
-894.3538962
-894.3538962
-894.3538962
-894.3538962
-894.3538962
-905.9245666
-894.3538962
-894.3538962
-894.3538962
-894.3538962
-894.3538962
-1310.783177
-1523.085038
-894.3538962
-894.3538962
-894.3538962
-894.3538962
-896.5041089
-894.3538962
-894.3538962
-894.3538962
-894.3538962
-894.3538962
-894.3538962
-894.3538962
-894.3538962
-894.3538962
-894.3538962
-894.3538962
-894.3538962
-894.3538962
-942.5925725
-1152.694417
-894.3538962
-894.3538962
-894.3538962
-894.3538962
-894.3538962
-894.3538962
-894.3538962
-894.3538962
-894.3538962
-894.3538962
-894.3538962
-894.3538962
-894.3538962
-894.3538962
-894.3538962
-894.3538962
-894.3538962
-894.3538962
-894.3538962
-912.3942356
-894.3538962
-894.3538962
-894.3538962
-894.3538962
-894.3538962
-894.3538962
-894.3538962
-894.3538962
-894.3538962
-894.3538962
-894.3538962
-894.3538962
-894.3538962
-894.3538962
-894.3538962
-894.3538962
-894.3538962
-894.3538962
-894.3538962
-894.3538962
-894.3538962
-894.3538962
-894.3538962
-894.3538962
-894.3538962
-894.3538962
-894.3538962
-894.3538962
-894.3538962
-894.3538962
-894.3538962
-894.3538962
-894.3538962
-894.3538962
-894.3538962
-894.3538962
-894.3538962
-894.3538962
-894.3538962
-894.3538962
-894.3538962
-894.3538962
-894.3538962
-894.3538962
-894.3538962
-894.3538962
-894.3538962
-894.3538962
-894.3538962
-894.3538962
-894.3538962
-894.3538962
-894.3538962
-894.3538962
-894.3538962
-894.3538962
-894.3538962
-894.3538962
-894.3538962
-894.3538962
-894.3538962
-894.3538962
-894.3538962
-894.3538962
-894.3538962
-894.3538962
-894.3538962
-342814.8217
-350066.0615
-354859.2668
-341122.6034
-341388.1554
-333822.4328
-332152.6296
-330112.107
-318358.1419
-323642.5437
-325985.5872
-330840.0071
-318791.0968
-312025.9849
-323373.654
-328836.2789
-345584.8168
-343410.3175
-340457.5178
-326616.2698
-509125.84
-522651.1982
-526644.4124
-490942.2444
-493110.7572
-476929.8618
-485592.9484
-499636.0841
-469559.7848
-477299.1494
-481950.1565
-499694.1958
-465934.2176
-453847.9595
-477758.0334
-476938.3594
-512809.2519
-492343.4271
-479186.2665
-469830.1005
-55175.30727
-894.3538962
-894.3538962
-33227.23151
-894.3538962
-894.3538962
-31495.75359
-115213.8513
-54939.03471
-44637.1259
-73618.15816
-76924.84535
-894.3538962
-36398.37601
-58853.51914
-46267.75477
-118871.479
-23613.05176
-894.3538962
-24223.47015
-894.3538962
-894.3538962
-894.3538962
-5884.484031
-894.3538962
-894.3538962
-894.3538962
-13562.95419
-894.3538962
-894.3538962
-894.3538962
-894.3538962
-894.3538962
-894.3538962
-894.3538962
-894.3538962
-14677.50993
-894.3538962
-894.3538962
-894.3538962
-894.3538962
-894.3538962
-894.3538962
-2045.649437
-894.3538962
-894.3538962
-894.3538962
-3964.120714
-894.3538962
-894.3538962
-894.3538962
-894.3538962
-894.3538962
-894.3538962
-894.3538962
-894.3538962
-4623.874824
-894.3538962
-894.3538962
-894.3538962
-894.3538962
-894.3538962
-894.3538962
-894.3538962
-894.3538962
-894.3538962
-894.3538962
-1919.252844
-894.3538962
-894.3538962
-894.3538962
-894.3538962
-894.3538962
-894.3538962
-894.3538962
-894.3538962
-2294.964391
-894.3538962
-894.3538962
-894.3538962
-894.3538962
-894.3538962
-894.3538962
-894.3538962
-894.3538962
-894.3538962
-894.3538962
-1278.414188
-894.3538962
-894.3538962
-894.3538962
-894.3538962
-897.8757656
-894.3538962
-894.3538962
-894.3538962
-1411.89894
-894.3538962
-894.3538962
-894.3538962
-894.3538962
-894.3538962
-894.3538962
-894.3538962
-894.3538962
-894.3538962
-894.3538962
-1045.368777
-894.3538962
-894.3538962
-894.3538962
-894.3538962
-894.3538962
-894.3538962
-894.3538962
-894.3538962
-984.3468734
-894.3538962
-894.3538962
-894.3538962
-894.3538962
-894.3538962
-894.3538962
-894.3538962
-894.3538962
-894.3538962
-894.3538962
-951.4570077
-894.3538962
-894.3538962
-894.3538962
-894.3538962
-894.3538962
-894.3538962
-894.3538962
-894.3538962
-894.3538962
-894.3538962
-894.3538962
-894.3538962
-894.3538962
-894.3538962
-894.3538962
-894.3538962
-894.3538962
-894.3538962
-894.3538962
-914.1833534
-894.3538962
-894.3538962
-894.3538962
-894.3538962
-894.3538962
-894.3538962
-894.3538962
-894.3538962
-894.3538962
-894.3538962
-894.3538962
-894.3538962
-894.3538962
-894.3538962
-894.3538962
-894.3538962
-894.3538962
-894.3538962
-894.3538962
-902.6005464
-894.3538962
-894.3538962
-894.3538962
-894.3538962
-894.3538962
-894.3538962
-894.3538962
-894.3538962
-894.3538962
-894.3538962
-894.3538962
-894.3538962
-894.3538962
-894.3538962
-894.3538962
-894.3538962
-894.3538962
-894.3538962
-894.3538962
-901.6349001
-894.3538962
-894.3538962
-894.3538962
-894.3538962
-894.3538962
-894.3538962
-894.3538962
-894.3538962
-894.3538962
-894.3538962
-894.3538962
-894.3538962
-338162.9974
-355631.0032
-338949.0759
-334414.0237
-346161.1978
-339082.8938
-336476.0238
-327877.1097
-325419.7514
-329860.6413
-336933.2818
-326253.3357
-332235.1844
-343628.0232
-339792.6914
-353575.5047
-355699.668
-360873.0862
-347102.701
-334334.0503
-485696.154
-524491.3047
-480561.3251
-478753.4221
-514188.0912
-494881.3366
-494493.9802
-479732.6133
-476417.5958
-486526.3493
-506268.2005
-476549.8982
-484029.0833
-504014.6552
-490522.6906
-525150.6522
-513871.6429
-520091.6085
-492659.9855
-474334.7773
-88642.20499
-79255.69825
-894.3538962
-894.3538962
-66555.2401
-88842.64819
-102154.2905
-37164.7995
-52929.41699
-46169.64886
-894.3538962
-41811.88214
-68024.26919
-54303.94852
-42136.48847
-140400.6901
-41876.44908
-894.3538962
-894.3538962
-41825.95718
-894.3538962
-894.3538962
-894.3538962
-894.3538962
-13385.22083
-894.3538962
-8932.408285
-894.3538962
-894.3538962
-894.3538962
-894.3538962
-894.3538962
-894.3538962
-894.3538962
-894.3538962
-17888.3696
-894.3538962
-894.3538962
-894.3538962
-4928.224067
-894.3538962
-894.3538962
-894.3538962
-894.3538962
-3852.26571
-894.3538962
-894.3538962
-894.3538962
-894.3538962
-894.3538962
-894.3538962
-894.3538962
-894.3538962
-894.3538962
-894.3538962
-5727.622492
-894.3538962
-894.3538962
-894.3538962
-894.3538962
-894.3538962
-894.3538962
-894.3538962
-894.3538962
-894.3538962
-894.3538962
-894.3538962
-894.3538962
-894.3538962
-894.3538962
-997.5195469
-894.3538962
-894.3538962
-894.3538962
-894.3538962
-3037.212173
-894.3538962
-894.3538962
-894.3538962
-894.3538962
-894.3538962
-894.3538962
-894.3538962
-894.3538962
-894.3538962
-894.3538962
-894.3538962
-894.3538962
-894.3538962
-894.3538962
-955.2866935
-894.7496309
-894.3538962
-894.3538962
-894.3538962
-1847.414123
-894.3538962
-894.3538962
-894.3538962
-894.3538962
-894.3538962
-894.3538962
-894.3538962
-894.3538962
-894.3538962
-894.3538962
-894.3538962
-894.3538962
-894.3538962
-894.3538962
-910.9888971
-895.4125825
-894.3538962
-894.3538962
-894.3538962
-1271.448608
-894.3538962
-894.3538962
-894.3538962
-894.3538962
-894.3538962
-894.3538962
-894.3538962
-894.3538962
-894.3538962
-894.3538962
-894.3538962
-894.3538962
-894.3538962
-894.3538962
-896.4697544
-894.3538962
-894.3538962
-894.3538962
-894.3538962
-894.3763019
-894.3538962
-894.3538962
-894.3538962
-894.3538962
-894.3538962
-894.3538962
-894.3538962
-894.3538962
-894.3538962
-894.3538962
-894.3538962
-894.3538962
-894.3538962
-894.3538962
-894.3538962
-894.3538962
-894.3538962
-894.3538962
-894.3538962
-894.3538962
-894.3538962
-894.3538962
-894.3538962
-894.3538962
-894.3538962
-894.3538962
-894.3538962
-894.3538962
-894.3538962
-894.3538962
-894.3538962
-894.3538962
-894.3538962
-894.3538962
-894.3538962
-894.3538962
-894.3538962
-894.3538962
-894.3538962
-894.3538962
-894.3538962
-894.3538962
-894.3538962
-894.3538962
-894.3538962
-894.3538962
-894.3538962
-894.3538962
-894.3538962
-894.3538962
-894.3538962
-894.3538962
-894.3538962
-894.3538962
-894.3538962
-894.3538962
-894.3538962
-894.3538962
-894.3538962
-894.3538962
-894.3538962
-894.3538962
-894.3538962
-894.3538962
-337052.5157
-355845.7191
-355006.3619
-345341.7723
-351176.4228
-340887.4964
-335407.297
-323293.8582
-329562.517
-322024.3169
-322859.9491
-311489.4901
-316066.6576
-338070.4816
-341500.0742
-352800.7626
-355858.6517
-342660.6775
-332471.3145
-335179.5649
-481791.6598
-525584.1995
-516087.2568
-489920.8113
-522488.2114
-497405.0814
-493930.3515
-474017.3246
-498282.7874
-477679.4709
-482786.9633
-462120.1498
-471432.6341
-513323.7785
-499232.2979
-514547.3776
-526890.8149
-496629.8549
-477217.6802
-497295.3595
-68015.38426
-126310.2202
-56347.36138
-894.3538962
-56990.40046
-49855.18033
-108916.223
-99364.38271
-42752.49667
-894.3538962
-47462.94284
-89710.2451
-81661.70059
-63553.96353
-69358.54189
-53522.38734
-894.3538962
-894.3538962
-21456.93092
-87082.49766
-894.3538962
-894.3538962
-894.3538962
-894.3538962
-894.3538962
-894.3538962
-11406.35374
-14791.14251
-894.3538962
-894.3538962
-894.3538962
-11678.88629
-2363.065942
-894.3538962
-894.3538962
-894.3538962
-894.3538962
-894.3538962
-894.3538962
-894.3538962
-894.3538962
-894.3538962
-894.3538962
-894.3538962
-894.3538962
-894.3538962
-894.3538962
-4381.281415
-894.3538962
-894.3538962
-894.3538962
-4389.809366
-894.3538962
-894.3538962
-894.3538962
-894.3538962
-894.3538962
-894.3538962
-894.3538962
-894.3538962
-894.3538962
-894.3538962
-894.3538962
-894.3538962
-894.3538962
-894.3538962
-894.3538962
-2348.730574
-894.3538962
-915.4402027
-894.3538962
-2422.447783
-894.3538962
-894.3538962
-894.3538962
-894.3538962
-894.3538962
-894.3538962
-894.3538962
-894.3538962
-894.3538962
-894.3538962
-894.3538962
-894.3538962
-894.3538962
-894.3538962
-894.3538962
-1599.527386
-894.3538962
-897.1716173
-894.3538962
-1093.064777
-894.3538962
-894.3538962
-894.3538962
-894.3538962
-894.3538962
-894.3538962
-894.3538962
-894.3538962
-894.3538962
-894.3538962
-894.3538962
-894.3538962
-894.3538962
-894.3538962
-894.3538962
-1253.276761
-904.0620176
-894.3538962
-894.3538962
-894.3538962
-894.3538962
-894.3538962
-894.3538962
-894.3538962
-894.3538962
-894.3538962
-894.3538962
-894.3538962
-894.3538962
-894.3538962
-894.3538962
-894.3538962
-894.3538962
-894.3538962
-894.3538962
-1077.56909
-914.7065451
-894.3538962
-894.3538962
-894.3538962
-894.3538962
-894.3538962
-894.3538962
-894.3538962
-894.3538962
-894.3538962
-894.3538962
-894.3538962
-894.3538962
-894.3538962
-894.3538962
-894.3538962
-894.3538962
-894.3538962
-894.3538962
-945.9929097
-909.9926461
-897.2616011
-894.3538962
-894.3538962
-894.3538962
-894.3538962
-894.3538962
-894.3538962
-894.3538962
-894.3538962
-894.3538962
-894.3538962
-894.3538962
-894.3538962
-894.3538962
-894.3538962
-894.3538962
-894.3538962
-894.3538962
-911.0508343
-914.160989
-902.3058762
-894.3538962
-894.3538962
-894.3538962
-894.3538962
-894.3538962
-894.3538962
-894.3538962
-894.3538962
-894.3538962
-894.3538962
-894.3538962
-894.3538962
-894.3538962
-894.3538962
-894.3538962
-894.3538962
-894.3538962
-913.9278406
-917.6989481
-904.2792448
-894.3538962
-894.3538962
-894.3538962
-894.3538962
-894.3538962
-894.3538962
-894.3538962
-894.3538962
-894.3538962
-894.3538962
)
;
    }
    inlet
    {
        type            calculated;
        value           uniform 0;
    }
    outlet
    {
        type            calculated;
        value           uniform 0;
    }
}


// ************************************************************************* //
