/*--------------------------------*- C++ -*----------------------------------*\
  =========                 |
  \\      /  F ield         | OpenFOAM: The Open Source CFD Toolbox
   \\    /   O peration     | Website:  https://openfoam.org
    \\  /    A nd           | Version:  7
     \\/     M anipulation  |
\*---------------------------------------------------------------------------*/
FoamFile
{
    version     2.0;
    format      ascii;
    class       volScalarField;
    location    "60";
    object      rho;
}
// * * * * * * * * * * * * * * * * * * * * * * * * * * * * * * * * * * * * * //

dimensions      [1 -3 0 0 0 0 0];

internalField   nonuniform List<scalar> 
16320
(
0.2721225015
0.2708261523
0.2707036314
0.2703621667
0.2713541571
0.2731073299
0.2747421193
0.2769006038
0.2774153625
0.2780397184
0.2770079405
0.2759659144
0.2743913458
0.2740854747
0.2735696593
0.2728695055
0.2721771814
0.2704539529
0.2704069791
0.2701497715
0.2714886627
0.2707886853
0.2702209774
0.2703600537
0.2709035948
0.2721139948
0.273049529
0.2749467687
0.2756330648
0.2763016336
0.2762611966
0.2752245003
0.2745819971
0.2735609545
0.2735251157
0.2724080944
0.2720308744
0.2710862062
0.2703283455
0.2704077196
0.2704385253
0.270491788
0.2698394012
0.270510753
0.2710794804
0.2727436896
0.2736692477
0.2746633038
0.2748228781
0.2760130412
0.276590254
0.2764733959
0.2759119037
0.2752153651
0.2744102851
0.2729962641
0.2715065785
0.2708795616
0.2694994519
0.2696706142
0.2721384903
0.271835598
0.2717120713
0.2720618555
0.2723608668
0.274040748
0.2743420434
0.2748326486
0.2750645286
0.2758741914
0.2756217154
0.2758017019
0.2748200311
0.27442204
0.273334642
0.2729021193
0.2723065725
0.2714526974
0.2702742807
0.2699022687
0.2736483302
0.2722925878
0.2724714388
0.272763892
0.2722604234
0.2738176635
0.2742460095
0.2754753976
0.2763548223
0.2767394521
0.2762816882
0.2755341342
0.2746757276
0.2735538883
0.2730582687
0.2721960467
0.2719641358
0.2708143158
0.2706989104
0.2716008846
0.2740907477
0.2735376983
0.2730597528
0.2736444854
0.2731306972
0.2744016938
0.2747717252
0.275270055
0.2764020565
0.2761265764
0.2761232916
0.2749373948
0.2747198186
0.2742357919
0.2736493086
0.2731051762
0.2723351255
0.2712810478
0.270755071
0.2727608913
0.2759686461
0.2749524961
0.2746157398
0.2746294962
0.2745487934
0.274750505
0.2751401901
0.275435012
0.2764765984
0.2761421209
0.2761979808
0.2752132299
0.2740309657
0.2739745582
0.2729204165
0.2729904434
0.2717942391
0.2718244149
0.2716501379
0.2736070188
0.2755616535
0.2742692757
0.2744731963
0.2742511745
0.2746556068
0.2741726587
0.274877355
0.2753247977
0.2771559403
0.2774920275
0.2774144321
0.276957263
0.2756347266
0.2755058879
0.2740872151
0.2736038813
0.2722252312
0.2721452738
0.2717949074
0.274335626
0.2759217353
0.2753426241
0.2752178423
0.2757044402
0.2759040502
0.2755144876
0.2758285668
0.2762012219
0.2771152402
0.2774923131
0.277924115
0.2781759523
0.2766486422
0.2765490704
0.2747957862
0.2740425911
0.2727483706
0.2731081047
0.2731037167
0.2752239785
0.2754400521
0.2755143744
0.274807592
0.2757721043
0.2759035645
0.2761834515
0.2759714228
0.2769172185
0.277650357
0.2791851113
0.2804632161
0.2807911471
0.2792160513
0.2783306382
0.2768946325
0.2749768481
0.2738021056
0.2734777735
0.2738977125
0.2760593256
0.2757699562
0.276044589
0.2751733974
0.2758717423
0.2758583107
0.2770250386
0.2767514583
0.2774917172
0.2777788789
0.2792703562
0.2800512337
0.2803034943
0.2787702026
0.2777877729
0.2779035068
0.2767587081
0.2749424131
0.2741074682
0.2743047598
0.2762235563
0.2748692183
0.274852563
0.2737491791
0.2746187938
0.2757053255
0.2771744405
0.277548301
0.2779455493
0.2778462294
0.2781456921
0.2788268452
0.2786212274
0.2783972277
0.2773153247
0.277169185
0.2769409485
0.2747162219
0.2742453168
0.2745279912
0.2762129075
0.2745610272
0.2740222099
0.2731003306
0.2734881564
0.274995022
0.2760426461
0.2768169278
0.2765449405
0.2769051085
0.2771359391
0.2775676715
0.2776532137
0.2779185107
0.2780804477
0.2778820158
0.2774846634
0.2751968879
0.2740496448
0.2737401858
0.276236739
0.2731002151
0.2727209815
0.273206369
0.2735544581
0.2744963858
0.27430848
0.2746358754
0.2746277731
0.2744340746
0.2748997847
0.2750860755
0.2756750653
0.2757241944
0.2765706559
0.2761676137
0.2758142782
0.2741183002
0.2735972282
0.2736026796
0.275365057
0.2727581172
0.2716060795
0.2725703237
0.272874012
0.2737552326
0.2741239927
0.2735396441
0.2737986161
0.2736491416
0.2741489222
0.2745525212
0.2754194682
0.2757315212
0.2759642636
0.2755994186
0.2744183643
0.2735156881
0.2725071011
0.2725999745
0.2733454116
0.271948797
0.2716755834
0.2722780334
0.2731692128
0.2732756963
0.2742063062
0.2738814133
0.2740417287
0.2734043129
0.2735833646
0.2743969992
0.274940322
0.2752096445
0.2743668149
0.2745676521
0.2742721255
0.2734426349
0.2725185362
0.2718526442
0.272033921
0.2710954949
0.271114245
0.2712610639
0.273081536
0.2735945533
0.2743211491
0.2737149714
0.2740955502
0.2744968793
0.2745797599
0.2751529105
0.2747255597
0.2746153707
0.2735149955
0.2730109305
0.2728911845
0.2717437185
0.2713269293
0.2702351078
0.2701053256
0.269581096
0.2703931288
0.2711630742
0.2728837786
0.273105279
0.2739824427
0.2742388277
0.2739916539
0.2748849316
0.2749243535
0.2756749216
0.2754619956
0.2749309105
0.2739141092
0.2733161559
0.2726975791
0.2714068149
0.2706192405
0.2694006808
0.2703715752
0.2698511407
0.2699644711
0.2704051849
0.2722659202
0.2732013646
0.2734357529
0.274452758
0.2748339136
0.276128288
0.2762050497
0.2763348811
0.2753824651
0.2750104054
0.2740270342
0.2723512417
0.2714075559
0.2700294936
0.2700505177
0.2697384954
0.2709787518
0.2694644843
0.2698090713
0.2709315891
0.2721517642
0.2734166427
0.2741738948
0.2749918441
0.2749634047
0.2765655883
0.2768986583
0.2772184603
0.2767619232
0.2756441323
0.2739594754
0.2729176066
0.2720058225
0.2704776822
0.2701474417
0.2697156361
0.27154904
0.2498053666
0.2492436345
0.2484044457
0.2475393252
0.2469052533
0.2487492206
0.2497145841
0.2520072884
0.2522190424
0.2538353749
0.2537442726
0.2533815522
0.2518269267
0.2508022857
0.2490021107
0.2481715731
0.2488563751
0.2481417655
0.2480192707
0.2477069872
0.2492907757
0.2491747341
0.2480223137
0.2476780623
0.2460777582
0.2464894844
0.2473464435
0.2486956427
0.2483654264
0.2503216039
0.2513541844
0.251432553
0.2509848282
0.2502656884
0.2495801385
0.2492258852
0.2497684381
0.2487196759
0.2491491965
0.2492314463
0.2489479888
0.2480453175
0.2473072522
0.246327413
0.2460008284
0.2469486511
0.2476945413
0.2485894678
0.2468967741
0.2484646871
0.2511768793
0.2518365326
0.2524488886
0.2519081229
0.2514663813
0.2496923468
0.2484798996
0.2481778465
0.2485804612
0.2494302325
0.25086055
0.2489758662
0.2484605881
0.2466983255
0.2472558975
0.2496506222
0.2495941021
0.2491893404
0.2482792678
0.2489752257
0.2501525689
0.2514835852
0.251727827
0.2521105701
0.250975679
0.2500070318
0.2486044536
0.2490302016
0.2485701846
0.2484740377
0.251619867
0.2501805631
0.2490142802
0.2480635959
0.248350033
0.249470527
0.2500491359
0.2512711376
0.2509657128
0.251599739
0.2502440533
0.2494209734
0.2497582933
0.2497922595
0.2493117887
0.2485877688
0.2482572159
0.2483158318
0.2487075214
0.2485255978
0.2522781351
0.2522353312
0.2512866027
0.2512163637
0.2507629805
0.2507605748
0.2499571523
0.250995638
0.2523950172
0.2525191969
0.2517156253
0.250313957
0.2507288837
0.2496895547
0.2501094324
0.2496821178
0.2540743544
0.2483825255
0.2478544746
0.2482738733
0.2527434637
0.2519131558
0.2517130679
0.2511564444
0.2512176932
0.250191635
0.2502004548
0.2499245048
0.2512807566
0.251658419
0.2500153947
0.2492753296
0.2492740141
0.249077376
0.2492082434
0.2498457005
0.2490218945
0.2484128148
0.2479727638
0.24951041
0.2508556314
0.2503769552
0.249864822
0.2501629053
0.2497779233
0.2490246263
0.2497303188
0.250316772
0.2526205438
0.2532479412
0.2513337798
0.2512044407
0.2502811203
0.2511193049
0.2492164567
0.2486742655
0.2472787507
0.2474337001
0.2470564054
0.2486913432
0.2510554072
0.2510560675
0.2500254573
0.2514003194
0.2505705531
0.2497175357
0.2510736561
0.2501481284
0.2500985727
0.2517762945
0.2525405255
0.2522118468
0.2513719277
0.2525428711
0.250827725
0.2504901897
0.2489372208
0.2492104537
0.2474800435
0.248894483
0.2516060684
0.2509284811
0.2495910817
0.2504362699
0.2502549446
0.2506367889
0.2513522498
0.2512265223
0.2498075929
0.2523281181
0.2554967565
0.2556539293
0.2532117335
0.2530869459
0.2517578938
0.2503772378
0.2490174414
0.2484509865
0.2476032003
0.2500093866
0.2532686014
0.2521979319
0.2503191404
0.2511001642
0.251093283
0.2530391261
0.2521036279
0.2515900288
0.2511095274
0.2534702577
0.2549527087
0.2557630963
0.2544677829
0.2552460283
0.2544687881
0.2514383937
0.2499216155
0.2478155988
0.2482622378
0.2506954832
0.2513181949
0.2502521849
0.2496822737
0.2490512178
0.2492849103
0.2522465971
0.2523318765
0.252852721
0.251514328
0.2513974013
0.2518960632
0.2522236783
0.2524347841
0.2534161965
0.2537211115
0.2518638077
0.2495450733
0.2482343434
0.2507473285
0.2530778752
0.2509476168
0.24965819
0.2505701089
0.2490797639
0.2487742859
0.2505282174
0.2522334325
0.2520985176
0.2553759219
0.2503601442
0.2509672547
0.2501021536
0.2517365945
0.252390392
0.2545069801
0.2540731316
0.2503167097
0.2485794579
0.2499973002
0.2526198072
0.2498110735
0.2480582597
0.2489399581
0.2486948818
0.2498861253
0.2498074498
0.2488908416
0.2479881559
0.248484192
0.2481380656
0.2485991496
0.2486920017
0.2498564742
0.250789832
0.2527257481
0.2534631186
0.2511139747
0.2500646873
0.2483564241
0.2492806752
0.2500358835
0.2484946971
0.2494665201
0.2495086854
0.2496272138
0.2501763942
0.2482689527
0.2472647583
0.2475656166
0.2486869511
0.2482143933
0.2497132177
0.2504681068
0.2517580744
0.2517285192
0.2511692335
0.2500098112
0.2488590923
0.2470907026
0.2479567303
0.2481546869
0.2475729835
0.2484245497
0.2500697233
0.2495233046
0.2496515966
0.2488109941
0.249367006
0.2489113868
0.2487601039
0.2484724259
0.2495205952
0.2510637596
0.2513606003
0.2516345386
0.250171806
0.2501990107
0.2481820699
0.2475083756
0.2483185336
0.2478526096
0.248099043
0.2480891869
0.2494199374
0.2496786756
0.2508049368
0.2500495231
0.2497611722
0.2503927029
0.249823092
0.2508374956
0.2505829861
0.2495631095
0.2495641212
0.2501660152
0.2485987175
0.2489587196
0.2477132139
0.2480810542
0.2474499704
0.2471067393
0.2475467876
0.2482336039
0.2503416297
0.2506826466
0.2508686152
0.2509315802
0.2497930346
0.2501283662
0.2500582803
0.2513115544
0.2519162748
0.2499780184
0.2507749818
0.2511824881
0.2489218218
0.2492804055
0.247828092
0.2483234354
0.2533065852
0.2475528649
0.2482573203
0.2488933635
0.2499967443
0.2510604681
0.250576298
0.2494993267
0.2492392497
0.2510415848
0.2511595357
0.2523097222
0.2516601816
0.2497949626
0.2508671471
0.2496995565
0.2475534771
0.2480232618
0.2475790101
0.2489612987
0.2490818437
0.2485148116
0.248319309
0.2493008254
0.2494262309
0.2496092408
0.250531828
0.2490400056
0.2484309092
0.2498743811
0.2513747037
0.2518250276
0.2514768295
0.248613443
0.2482611919
0.248268213
0.2474713428
0.2480506483
0.2471453746
0.2481406021
0.2491924001
0.3644428134
0.3842954872
0.3816393687
0.356581425
0.3543358653
0.3700160564
0.3778179083
0.3919663509
0.3915323515
0.3954766387
0.397495177
0.3988422383
0.3886689033
0.380958947
0.3672563843
0.37294376
0.3841130922
0.378087324
0.3583438996
0.3470904815
0.3788572565
0.4250404731
0.3992078972
0.350634849
0.3412787049
0.3586901743
0.3836714347
0.3974194125
0.3870871489
0.3784804112
0.3760795032
0.3758781114
0.3745710525
0.3710232353
0.3625653986
0.3712224137
0.3948393221
0.3862483083
0.3713364897
0.3621042497
0.3801871206
0.4244587805
0.3582163272
0.339874606
0.3477184092
0.3764971189
0.411424547
0.4376849463
0.4289638471
0.3991655827
0.3893012972
0.3836423082
0.3893803436
0.3867578209
0.3814808518
0.3860491301
0.4138230553
0.4045368794
0.3804197586
0.3681401102
0.3813666861
0.3781393359
0.3543945019
0.3446947159
0.3686711987
0.4155553911
0.4523184222
0.4760493997
0.4854027206
0.4519932537
0.4020187228
0.3871396143
0.3853015322
0.3889446852
0.3894946505
0.4143969922
0.4759640191
0.4458402685
0.393689895
0.3639036351
0.3840900159
0.3713074196
0.3585184008
0.3540981966
0.3666513097
0.3940270189
0.4284909572
0.4870391773
0.7244970266
0.4970113689
0.4100409783
0.3670398682
0.3583307655
0.3671866192
0.3895898104
0.4358656818
0.5337949424
0.4801895405
0.4137224678
0.368557356
0.3963392308
0.3976641916
0.3906492745
0.3862603142
0.3827949413
0.3830905238
0.3898658019
0.4274244976
0.5342989533
0.4452836779
0.3930411284
0.3597648585
0.3632401484
0.3944965753
0.4958067792
0.7421943114
1.179354716
1.179354829
0.5313429527
0.4006707705
0.386176596
0.3844894632
0.386353164
0.3824990103
0.3789521873
0.36688354
0.3676276323
0.3768710129
0.4198629267
0.3895872521
0.3594355506
0.3431059176
0.3464368099
0.3619345533
0.410336941
0.5045697278
0.7013523689
1.17935458
0.5242942397
0.4054189463
0.3653155969
0.3639905802
0.3615284256
0.3679581214
0.3614006904
0.3529965669
0.3564913556
0.3619480473
0.3805621701
0.3784587994
0.3599977498
0.3594480985
0.3549819261
0.3615747553
0.3670849323
0.4011410944
0.4464647692
0.5419758234
0.4027029955
0.3669566263
0.3744927224
0.3651451661
0.360233308
0.3753932986
0.3689664829
0.3547192172
0.3612159098
0.3578004719
0.3621485375
0.3678894683
0.3744233521
0.3803334916
0.3738943653
0.3792758181
0.3631475188
0.3687236467
0.3769525991
0.4112745079
0.3574285652
0.3691201476
0.3908003049
0.3660059955
0.3618199607
0.3772429163
0.383554674
0.3705779747
0.3728757281
0.3819596359
0.3934879506
0.3835113456
0.3998053734
0.4106286914
0.3890658433
0.3880322359
0.368103648
0.3540857194
0.3487024261
0.3542996221
0.3422067072
0.4085780865
0.4159267407
0.3801804099
0.3752029977
0.3840627255
0.3817035118
0.3904946637
0.3938584863
0.4244000293
0.4740458175
0.4115569638
0.4013137566
0.4089656601
0.4038643273
0.4182862115
0.4083450838
0.3677226602
0.351012929
0.3430833962
0.3873984913
0.5077333579
0.3804291043
0.3861179
0.4016652644
0.3922559016
0.3759778502
0.3979798702
0.4289102667
0.5073257062
0.661902835
0.4117256239
0.3833184878
0.379397342
0.3930392985
0.4072061
0.4118746877
0.3854504581
0.3551580934
0.3447865106
0.3864643771
0.4467808881
0.4187205984
0.4584633836
0.5251863825
0.4809250384
0.4034747048
0.4121255243
0.4864263933
0.6923328321
1.179353892
0.4120984347
0.3905101948
0.3869242394
0.4301249665
0.4389620357
0.4553417551
0.4410109944
0.3785452459
0.3703119734
0.4236453126
0.3963239762
0.3796484564
0.3784713685
0.4049006868
0.3940677522
0.3821208668
0.3751205055
0.3860040628
0.4358679757
0.6100582147
0.3913441203
0.3608151957
0.3545421237
0.3701700279
0.3813992117
0.4046192395
0.4221546853
0.3922850429
0.3878673365
0.3653660602
0.3480019771
0.3682103223
0.3612968736
0.38099574
0.3776877134
0.3703899487
0.3666244239
0.3625118239
0.3912233827
0.5109482735
0.3858332515
0.3542314058
0.3568987144
0.3690345065
0.3845086327
0.3921436277
0.3946645024
0.3896644605
0.3883492425
0.3455085118
0.3452108271
0.3475838051
0.3441026126
0.3611685228
0.3724869626
0.3634597385
0.359042941
0.3560753197
0.3779574375
0.4295147862
0.3659014449
0.3458662123
0.3556222674
0.3758609786
0.394156612
0.401898961
0.383317522
0.3812984244
0.362600443
0.3508287885
0.4053530455
0.3396759924
0.3424636902
0.3533361869
0.3668928958
0.3675111207
0.3703026138
0.3636824392
0.3696459746
0.3968184603
0.3577667511
0.3566104877
0.3627879472
0.371115706
0.392623557
0.3959185603
0.3694173573
0.3665227337
0.3620046883
0.4042349622
0.5652156687
0.3344119661
0.3416421098
0.3594445446
0.3828268315
0.385344052
0.3803208779
0.3725166854
0.3643085898
0.3718769462
0.3544569422
0.3679786837
0.3821430871
0.3778480955
0.397461012
0.4008623137
0.3693695654
0.3694385483
0.3857710332
0.4834268051
1.179354697
0.3426135825
0.3566434015
0.3755990221
0.3949818372
0.4050010518
0.3853846331
0.3616033831
0.3567876347
0.3680550856
0.3698304633
0.3845415906
0.3865383952
0.3705610187
0.3860534838
0.3743247497
0.3499257824
0.3529416577
0.3497180255
0.3852831077
0.4971092645
0.3598323508
0.3668923422
0.3902686778
0.3993447994
0.4065999625
0.3922027668
0.3609711524
0.3563865448
0.3628903652
0.3791171758
0.3802253897
0.377374272
0.3548442476
0.3627213568
0.3597494918
0.3457314424
0.3482761374
0.3397437039
0.3464315834
0.3953448193
0.4925703873
0.59656027
0.625514082
0.5170988534
0.5471730292
0.5920374618
0.641715144
0.7009544033
0.699340506
0.6553096564
0.616653813
0.5933596901
0.5772283975
0.5669219208
0.5376936529
0.5467847383
0.6478471099
0.6279791363
0.5424401172
0.5135840328
0.530181253
1.179359862
1.179359479
0.5017623547
0.5454127408
0.644842283
0.7945964892
0.8922935295
0.867798762
0.7572723373
0.6386119452
0.5765524487
0.5473636899
0.5330015334
0.5133547125
0.568448685
0.8040795708
0.7771103442
0.603706237
0.5392443628
0.5782692137
1.179359968
0.5309149201
0.5233307411
0.6339297594
0.8424107897
1.179358958
1.179358979
1.179359008
1.179359034
0.7753420698
0.627047248
0.5752332813
0.5517339234
0.5538059564
0.6424579222
1.179359518
1.179359578
0.677391088
0.560115959
0.5259949042
0.5744329896
0.5095048075
0.571175006
0.7633497104
1.179358929
1.179358888
1.1793589
1.17935892
1.179358893
0.8978373008
0.6555969271
0.5666216869
0.5468045604
0.5886104376
0.7268760732
1.179359517
1.179359588
0.722639917
0.5662874547
0.5204446132
0.51471111
0.5109682139
0.5465287118
0.6361522351
0.8101406891
1.172968212
1.179358609
1.179358573
1.179358549
0.8779578834
0.6009985165
0.5065054219
0.5274979117
0.6213270226
0.8053559914
1.179359338
1.179359362
0.7611198802
0.5789395329
0.5562799868
0.5724279636
0.5741975163
0.5726365969
0.5902731546
0.6245687985
0.7073976124
0.8606779037
1.179358198
0.9967403125
0.6953730501
0.5252054413
0.5066171037
0.6685784902
1.022463175
1.179358768
1.179358894
1.179358884
1.179358865
0.7112806418
0.5337791447
0.5464892231
0.5596719159
0.5566190428
0.5463021661
0.5381347739
0.5645414668
0.6259572717
0.7394560996
0.6627446968
0.5442582316
0.4734337582
0.4789536632
0.5550337483
0.764136298
1.179358689
1.179358778
1.179358662
1.179358707
0.7006101788
0.5178506664
0.5140086041
0.5266673252
0.5451513317
0.5246536257
0.5060809745
0.5106102491
0.5336910126
0.5576873654
0.5447011709
0.5064290817
0.5041231997
0.4905873049
0.5035817633
0.5711187547
0.7216658011
0.869641155
1.179358437
0.7301526342
0.5583680824
0.5556760536
0.5105062088
0.5338577955
0.5665385998
0.5421194055
0.5056131388
0.5210101501
0.5445478888
0.5870165068
0.5867379512
0.5612115725
0.5766865744
0.5552305762
0.5329108473
0.5128379256
0.5549490167
0.6100039781
0.6806050112
0.5311725086
0.5454076255
0.5665218282
0.5156320379
0.5566564554
0.5979622854
0.5800148274
0.5457300057
0.5769440945
0.6626021948
0.7828809573
0.7247112338
0.630178291
0.6222854194
0.5817534718
0.5630808438
0.5164920534
0.490689078
0.5069640192
0.507136375
0.4703162548
0.7842409532
0.5509619093
0.5599433583
0.6169150012
0.6575564724
0.6039707825
0.6034791112
0.6650012119
0.8880421663
1.179358455
1.048521582
0.6738803792
0.6312653599
0.6142660525
0.6183313856
0.6001182378
0.5294328105
0.487873556
0.4719726106
0.6113325227
1.179359201
0.5755526267
0.6657915509
0.775889176
0.8068747664
0.6781107382
0.6906565305
0.7996439764
1.179358592
1.179358616
1.179358651
0.6662184971
0.6195972496
0.6411509473
0.6569533899
0.6511728666
0.5921408843
0.5109580639
0.5061489876
0.6178479498
0.7664142427
0.9749395699
1.179360356
1.179360102
1.179359794
1.179359493
1.057335145
1.04592987
1.179358698
1.17935856
1.179358735
1.159534311
1.179358977
1.179359075
1.179359098
1.148943215
0.8552360887
0.5983810808
0.8922903237
1.17935913
0.6440127062
0.6692626113
0.7621863705
0.9021084514
0.7780403543
0.6516456081
0.6141387551
0.6775523857
1.179358862
1.179358812
1.134559118
0.689261656
0.6435765467
0.6779530981
0.6831388859
0.6809735186
0.668103483
0.5895795267
0.7981264262
0.5940398798
0.5127492189
0.5747843872
0.6010326941
0.671230858
0.6325491556
0.5745691915
0.5571483266
0.6078120267
0.9192586012
1.179358836
0.8404899086
0.6104810429
0.5784380176
0.5946424145
0.5996132618
0.5983449014
0.5961657403
0.5852195866
0.6619742123
0.5211895948
0.4894170115
0.5164621442
0.5189586309
0.563560433
0.5707816677
0.5381779629
0.5283530284
0.5571529081
0.7015928788
1.164805875
0.652784771
0.5419997531
0.5400213361
0.5678049191
0.5883398414
0.6048205793
0.5794659193
0.5688823419
0.546353264
0.5029662805
0.6098013734
0.4795486675
0.4834544776
0.5167293553
0.5426402377
0.539185188
0.5359959878
0.5436105991
0.6115077077
0.8114551801
0.560377109
0.5141742984
0.5208866294
0.5464516146
0.5877225251
0.6090581434
0.5694664565
0.5420682945
0.5382147287
0.6696799426
1.179359359
0.4639668193
0.4758220071
0.5218062721
0.5673654384
0.5716391059
0.5607556204
0.5484819472
0.566794581
0.63220959
0.5163944122
0.5273999528
0.5596454374
0.5881635884
0.6420109847
0.6583071343
0.5832346679
0.5428647146
0.5538055189
1.179359222
1.179359489
0.4840453715
0.5057039415
0.5640436455
0.6229356999
0.6306485427
0.5848506402
0.5373365569
0.5428459832
0.5736944547
0.5922990288
0.5903207926
0.6045749965
0.5976485821
0.6390951662
0.6079852308
0.54928609
0.5264823418
0.5144091973
0.6211243884
1.179359602
0.5177038452
0.5472221671
0.6250605927
0.6776250205
0.6833452736
0.6227229224
0.5524441804
0.5610415475
0.5649243996
0.6303609694
0.5936969833
0.5837230721
0.5608921511
0.6048703483
0.5850088042
0.5363845727
0.5211987506
0.5063031029
0.5060752348
0.5999553848
0.6100585349
0.7631438984
0.8043250916
0.6826923046
0.750068052
0.8294584664
0.9139062141
1.008666149
1.011339585
0.9166508905
0.8379354613
0.7846246726
0.7791346825
0.7776213596
0.745777327
0.7104881094
0.8578493783
0.8315340381
0.7244631017
0.6687449891
1.154590076
1.179363711
0.8847353528
0.6681915104
0.8001881318
0.9782693395
1.179362696
1.179362684
1.179362694
1.092082285
0.939584414
0.8016615271
0.7302141091
0.6970742347
0.6633905473
0.7639792866
1.17936293
1.179363016
0.9014787163
0.7517203068
1.17936458
1.046935187
0.6903535589
0.7564224571
0.99914396
1.179362721
1.179362669
1.179362672
1.179362669
1.179362669
1.179362752
0.9094798164
0.7750369511
0.7196068209
0.7315933563
0.9313800286
1.152278679
1.179362972
1.147260609
0.8014358254
0.6660302531
0.7065552445
0.6912049331
0.8670318812
1.179362817
1.179362617
1.179362556
1.179362532
1.179362548
1.179362542
1.177595975
0.9335839221
0.7481852326
0.687238005
0.79379521
1.179362794
1.1793629
1.179363001
1.179363031
0.8023055402
0.634143495
0.6499927221
0.684501112
0.7928627704
0.9952700041
1.179362502
1.17936231
1.179362259
1.179362272
1.179362256
1.179362293
0.8322804273
0.6503622478
0.6698776632
0.853866172
1.179362678
1.179362795
1.177303403
1.179362818
0.7964205469
0.6766194736
0.7227120034
0.7412126851
0.7458585701
0.8084036559
0.8825706532
1.032191709
1.179361967
1.179361865
1.179361888
0.9496718574
0.6828193744
0.6155110743
0.8808859726
1.1793622
1.17936243
1.179362551
1.123114586
1.17936249
0.9339480391
0.6485674233
0.6868277361
0.7212660326
0.7115986043
0.6879831852
0.6933539183
0.765130298
0.8286283546
0.9376921349
0.8108650623
0.6976806141
0.5869363972
0.5825569777
0.7538585434
1.136288444
1.179362237
1.179362413
1.171213045
1.179362309
0.8934753989
0.6399895331
0.6621824752
0.7247257039
0.7452117336
0.6949485024
0.6446176282
0.6525124704
0.6857581481
0.7200971459
0.6985895793
0.6508875904
0.6552634347
0.6223878183
0.6313692638
0.7973776127
1.06518742
1.17936219
1.179362089
1.003794604
0.7096008271
0.6657341556
0.6640279419
0.7710879323
0.8118483398
0.741568137
0.660867103
0.6903018846
0.7566840402
0.8566551044
0.8685419878
0.7836545898
0.8054534862
0.7476744005
0.6773680745
0.6333194547
0.7338642405
0.8373559262
0.9127437546
0.700362293
0.7403627844
0.6760923726
0.6856263752
0.8249350307
0.8923150595
0.8142129296
0.7318442123
0.7903148202
0.9655072029
1.17936227
1.179362371
0.9231955968
0.8776333813
0.8080406969
0.743692274
0.6595459027
0.6144589516
0.6528251235
0.6465395949
0.6164628081
1.179363241
0.678258397
0.7689997726
0.9265644115
1.015687727
0.9063135482
0.8422760798
0.9147252895
1.179362455
1.179362427
1.179362473
1.119441539
0.9581183765
0.9081491278
0.8479291837
0.79115704
0.7107957742
0.6229236326
0.5939706487
0.834031965
1.179363064
0.7877845297
1.011175046
1.17936376
1.179363499
1.163642944
0.9941628404
1.056854754
1.179362564
1.165138679
1.179362595
1.17936273
1.177820275
1.179362946
1.015512915
0.902919001
0.8089771671
0.664910647
0.6289785781
0.8244122424
1.179363222
1.179364177
1.179363998
1.179363815
1.179363564
1.179363289
1.179363062
1.179362849
1.168743948
1.112353836
1.179362636
1.179362727
1.179362764
1.17936281
1.179362807
1.179362847
1.179363066
0.8441454197
1.019745045
1.179363083
0.9179009175
1.049379267
1.179364173
1.179363967
1.179363779
1.171567416
1.030889694
1.179363022
1.179362812
1.134520654
1.179362683
1.179362743
1.179362797
1.179362854
1.152535184
1.042024464
0.9541166461
0.7884461957
1.140792932
1.179363334
0.714800464
0.844495615
0.9356978126
1.039485894
0.9847993922
0.8738293342
0.8424305244
0.9256065347
1.179362892
1.179362769
1.179362671
1.015037142
0.9651814159
0.9568492927
0.8995837557
0.8411053208
0.8020845612
0.7574853086
0.9182320828
0.7646590156
0.6343086135
0.7232855694
0.7700968794
0.8561559477
0.8584197546
0.7848278443
0.7767486516
0.8297641765
1.179362922
1.179362723
1.013586889
0.8287697177
0.8115785864
0.8321277235
0.8078269189
0.795021271
0.7620309107
0.7451845484
0.7458806835
0.6903861987
0.7900063798
0.6372689085
0.6700798407
0.7400578741
0.7687629712
0.7466049479
0.7495106248
0.7824602152
0.9858415654
1.179362761
0.8297889675
0.7110346602
0.702397412
0.7309720514
0.7582541607
0.7869014624
0.7670225066
0.7250285922
0.7035896347
0.9846974277
1.179363629
0.5968750935
0.6291418302
0.710470452
0.7625929658
0.7691473362
0.7732429762
0.762081037
0.8479321552
0.9619741354
0.7028894074
0.6879202279
0.7206828472
0.7811546702
0.8702230631
0.9423332082
0.8826190148
0.7605392324
0.7355656183
1.179363463
1.179363926
0.6148802491
0.6554856461
0.7577169149
0.8382536476
0.8458859119
0.798458666
0.7388797849
0.7832652426
0.8703769167
0.9789143014
0.8349443894
0.8550443054
0.9031576277
0.9997695225
0.988963189
0.882624983
0.7774650446
0.708099456
0.8223279104
1.062871554
0.6687856297
0.7452683265
0.9017309338
1.000148643
0.9813293806
0.8650984508
0.751706988
0.7829197621
0.8457171007
1.152865677
0.8877896552
0.8588751265
0.8726179553
0.9682438259
0.9458010374
0.845908599
0.7989790975
0.7719355585
0.6955979504
0.738446342
0.732413575
0.9276354059
0.960697866
0.8509980855
0.9299293455
0.9966873964
1.064015852
1.17167887
1.179366207
1.077827172
1.001856857
0.9339177325
0.9414393174
0.9496213123
0.9275361583
0.8681099383
0.971869933
0.9572725217
0.8373548899
0.7908885651
1.179367975
1.134454365
0.9676810012
0.8425556762
1.01940553
1.179366319
1.179366218
1.179366185
1.179366157
1.179366149
1.110796254
0.9788639258
0.8753425239
0.8227894989
0.7751757825
0.8912914404
1.066245281
1.136165425
1.128536708
0.8991636308
1.179367943
1.110683938
0.8822193133
0.9788361831
1.179366406
1.179366247
1.179366179
1.179366154
1.179366139
1.17936614
1.179366169
1.141946897
0.9536159108
0.8529154502
0.8541559894
1.171406433
1.170219114
1.175763698
1.179366378
0.9666016845
0.8416727577
0.8914417732
0.9213122098
1.155437643
1.17936626
1.179366106
1.179366026
1.179366009
1.179366023
1.174497384
1.179366043
1.179366108
0.9351672148
0.8102911747
0.9454314038
1.179366043
1.179360781
1.17936633
1.179366297
0.9713081288
0.7674470449
0.8167673181
0.8856685041
1.019707323
1.179366189
1.179365894
1.179365773
1.179365756
1.179365801
1.179365792
1.179365771
1.141036591
0.8254168321
0.806154732
1.06787862
1.179365982
1.176899404
1.172577353
1.179366106
0.9343982766
0.7974651004
0.880909237
0.9061282498
0.8863516459
0.9483891117
1.023960797
1.149731952
1.179365497
1.179365533
1.176971927
1.15479875
0.8455524755
0.7099792398
0.9852379917
1.179365586
1.179365874
1.177994538
1.162672333
1.179365975
1.051605438
0.7518736994
0.8320326867
0.8877501555
0.8610539142
0.8181101823
0.7975577064
0.8771611605
0.9567602232
1.069607341
0.9247070063
0.8234678784
0.6957229438
0.6642304936
0.8499122179
1.17936553
1.179365724
1.179365918
1.179365982
1.179365897
1.034435706
0.7505313096
0.8301936696
0.9470078239
0.9600523336
0.8845465422
0.775094866
0.7783878413
0.8218038223
0.8809774742
0.8490379202
0.8050133719
0.8135538255
0.7635478252
0.7595862512
0.9040302723
1.179365495
1.179365692
1.167914689
1.075363941
0.8278219559
0.7825301127
0.8472464884
1.042142656
1.076742513
0.970385533
0.8217198221
0.8552616637
0.9471441793
1.047834377
1.075913218
1.012079272
1.026450074
0.9404602283
0.8372176395
0.7460707963
0.8145157788
1.002156242
1.032937148
0.8118680646
0.9166919662
0.8047350439
0.8992785018
1.13086411
1.171680631
1.059854559
0.9094197838
0.9540832335
1.138303333
1.179365825
1.179365906
1.179366079
1.126158654
1.042941541
0.9427842898
0.8127282425
0.7333043842
0.7522447328
0.7358615647
0.7482875511
1.179366588
0.8267858999
0.995688976
1.179367092
1.17936684
1.172319381
1.034598131
1.052957627
1.17936601
1.179366046
1.179366079
1.179366192
1.1793663
1.179366402
1.073290865
0.9781225806
0.8867879631
0.7612454094
0.7063427748
1.043722879
1.179366662
0.9905705403
1.179367351
1.179367151
1.179366944
1.179366741
1.179366538
1.179366313
1.176762984
1.152015488
1.179192021
1.179366256
1.179366338
1.179366393
1.179366434
1.149500222
1.030645387
0.8250817188
0.7367117717
1.000686206
1.179366734
1.179367524
1.179367399
1.179367219
1.179367033
1.179366837
1.179366638
1.179366457
1.132035735
1.109581748
1.146158568
1.179366267
1.179366313
1.179366361
1.179366386
1.179366388
1.17936648
1.063311562
1.136285268
1.179366766
1.179366972
1.179367639
1.179367478
1.179367318
1.179367161
1.179367002
1.17936682
1.179366588
1.172418687
1.142506875
1.179366263
1.179366256
1.179366264
1.179366288
1.179366335
1.179366423
1.156286928
0.9829283513
1.165668911
1.179366853
0.9046490253
1.077970974
1.179367577
1.179367386
1.179367247
1.179367108
1.170761784
1.179366655
1.179366486
1.179366365
1.179366254
1.179366171
1.179366162
1.179366217
1.124078667
1.03789986
0.9719550877
0.9016559158
1.058798499
0.9780424701
0.7604315947
0.9344127706
1.028234945