/*--------------------------------*- C++ -*----------------------------------*\
  =========                 |
  \\      /  F ield         | OpenFOAM: The Open Source CFD Toolbox
   \\    /   O peration     | Website:  https://openfoam.org
    \\  /    A nd           | Version:  7
     \\/     M anipulation  |
\*---------------------------------------------------------------------------*/
FoamFile
{
    version     2.0;
    format      ascii;
    class       volScalarField;
    location    "60";
    object      rhoavg;
}
// * * * * * * * * * * * * * * * * * * * * * * * * * * * * * * * * * * * * * //

dimensions      [1 -3 0 0 0 0 0];

internalField   nonuniform List<scalar> 
16320
(
0.2196610713
0.3286449897
0.2196609261
0.3260506673
0.2196609098
0.2196609294
0.2196609549
0.2196609834
0.3308933497
0.2196610342
0.323768779
0.219661043
0.3167696349
0.2196610055
0.2196609894
0.2196609843
0.2196609939
0.331600498
0.2196610063
0.3305494552
0.2196610672
0.2196610023
0.219660949
0.2196609228
0.2196609254
0.219660945
0.3364110017
0.2196610087
0.2196610353
0.3353325153
0.2196610418
0.3214426014
0.2196610091
0.3166471539
0.2196609857
0.3270345601
0.2196610125
0.2196610171
0.2196610212
0.2196610089
0.3205938223
0.2196609888
0.3199761314
0.2196609154
0.3263445132
0.2196609573
0.2196609987
0.2196610343
0.2196610578
0.2196610585
0.2196610422
0.2196610195
0.2196610008
0.21966099
0.2196609933
0.2196610129
0.3407559062
0.2196610417
0.3382289973
0.2196610117
0.2196610788
0.2196609812
0.2196609308
0.2196609195
0.2196609355
0.2196609718
0.3462835082
0.2196610487
0.3538547094
0.2196610639
0.3359513181
0.2196610126
0.3193455048
0.2196609942
0.3297394257
0.2196610428
0.2196610762
0.2196610748
0.2196610596
0.335499419
0.2196610918
0.312024686
0.2196609312
0.2196609187
0.3218383658
0.2196609637
0.3421541098
0.2196610344
0.2196610562
0.2196610438
0.2196610164
0.21966099
0.2196609786
0.3232739804
0.2196610137
0.3516475797
0.2196611097
0.3636591229
0.2196610775
0.2196610318
0.3130829773
0.2196609749
0.3089020361
0.2196609131
0.3160159284
0.2196609378
0.2196609644
0.3390761107
0.2196610104
0.3361763341
0.2196609798
0.3180511305
0.2196609574
0.2196609739
0.2196610195
0.2196610906
0.2196611702
0.2196611498
0.3576517742
0.2196610359
0.2196610556
0.2196609633
0.219660922
0.2196609057
0.2196609048
0.2196609131
0.2196609295
0.2196609489
0.2196609667
0.3253278013
0.2196609536
0.2196609426
0.3123534741
0.2196609537
0.3337975515
0.219661039
0.3636692431
0.2196611029
0.2196610519
0.2196610085
0.2196610328
0.3106833212
0.2196609211
0.3072578169
0.2196609007
0.3106115006
0.2196609182
0.3189969498
0.2196609544
0.2196609592
0.2196609543
0.2196609461
0.2196609427
0.2196609469
0.2196609634
0.2196609874
0.2196610074
0.2196610171
0.3433442498
0.2196609782
0.2196610224
0.2196609638
0.2196609319
0.2196609165
0.3102172897
0.2196609149
0.2196609291
0.2196609507
0.2196609741
0.3214951524
0.3175195004
0.219660978
0.3115587204
0.2196609629
0.3168982454
0.2196609546
0.329506739
0.219660954
0.2196609479
0.2196609628
0.3275751239
0.2196609846
0.3169506833
0.2196609445
0.2196609385
0.2196609441
0.3234129991
0.2196609923
0.2196610241
0.2196610351
0.2196610386
0.2196610347
0.2196610241
0.2196610025
0.2196609735
0.3156575327
0.2196609278
0.3223831748
0.2196609309
0.2196609721
0.2196610469
0.2196610154
0.2196609973
0.2196609866
0.3253542989
0.2196609875
0.3351978119
0.2196610507
0.3470436584
0.2196610968
0.3361218514
0.2196610954
0.3240142658
0.3202574362
0.2196610037
0.2196609567
0.2196609275
0.2196609229
0.2196609406
0.2196609979
0.3345247392
0.2196610446
0.3321589044
0.2196610311
0.2196610238
0.2196610288
0.2196610553
0.2196611002
0.2196611484
0.3544439928
0.2196611226
0.3366216706
0.2196611122
0.3267939416
0.3225820884
0.2196609737
0.3172097362
0.2196609282
0.2196609474
0.3366375782
0.219661063
0.2196610685
0.3354286598
0.3363478952
0.2196610534
0.2196610551
0.2196610797
0.3610414099
0.2196611915
0.2196611365
0.2196611138
0.2196611062
0.219661103
0.2196610879
0.2196610461
0.2196609916
0.2196609521
0.2196609401
0.3273559461
0.2196609754
0.3282433804
0.2196610458
0.2196610425
0.219661041
0.2196610343
0.3374091535
0.2196610598
0.2196610943
0.3589831795
0.2196610891
0.3428300185
0.2196610465
0.3305290629
0.2196610326
0.3245816098
0.2196609749
0.3198344248
0.219660926
0.2196609356
0.2196609524
0.219661013
0.3223483504
0.2196610041
0.3241606437
0.2196610047
0.2196610106
0.3353449901
0.2196610531
0.2196610702
0.2196610387
0.2196610092
0.2196609904
0.2196609828
0.2196609798
0.2196609687
0.3181369685
0.2196609228
0.319780495
0.2196609253
0.2196609464
0.2196609834
0.219660976
0.2196609682
0.2196609705
0.3174371803
0.2196609792
0.2196609925
0.219661009
0.3334889514
0.3295750687
0.2196609638
0.2196609465
0.2196609397
0.316175741
0.2196609333
0.21966092
0.2196609071
0.2196609078
0.2196609315
0.2196609727
0.2196609637
0.2196609563
0.3112072901
0.2196609483
0.2196609515
0.2196609552
0.3179451657
0.2196609697
0.2196609735
0.2196609513
0.2196609309
0.3137368877
0.2196609121
0.2196609125
0.3133409041
0.219660904
0.3159609
0.2196609147
0.2196609604
0.3404527066
0.3139656688
0.2196609581
0.2196609466
0.219660946
0.3125135584
0.2196609447
0.2196609443
0.3166293772
0.2196609451
0.3159861357
0.2196609152
0.2196609041
0.2196608988
0.3126549922
0.2196608977
0.2196608965
0.2196609021
0.2196609273
0.3350620134
0.2196611818
0.2196609983
0.2196609836
0.3153034817
0.2196609647
0.2196609589
0.3151920145
0.2196609449
0.2196609435
0.2196609425
0.2196609334
0.21966092
0.3133955714
0.219660901
0.2196608987
0.3134812822
0.2196608994
0.3167908263
0.2196609253
0.219660976
0.2196610988
0.321964426
0.2196610323
0.2196610094
0.321114424
0.2196609769
0.2196609621
0.2196609582
0.3208270011
0.2196609675
0.3209839904
0.2196609469
0.2196609286
0.2196609175
0.2196609102
0.2196609055
0.2196609022
0.2196609065
0.2196609217
0.3289886868
0.219661059
0.2196602149
0.2196603366
0.2196603793
0.2196604299
0.2196604709
0.38940352
0.2196605079
0.3967165874
0.2196604724
0.3916049627
0.2196603671
0.3769892214
0.2196603074
0.3718142665
0.2196603055
0.2196602979
0.2196603095
0.2196603088
0.2196603042
0.2196602215
0.2196603043
0.3861168823
0.2196604868
0.3832108586
0.2196605382
0.2196605606
0.2196605775
0.2196605816
0.2196605732
0.2196605319
0.2196604696
0.219660412
0.2196603807
0.2196603732
0.2196603847
0.2196604054
0.3980207669
0.2196604428
0.3981511205
0.2196603203
0.2196602841
0.2196604468
0.2196604623
0.219660512
0.2196605498
0.2196605853
0.2196606165
0.4262045329
0.219660642
0.2196606088
0.400104759
0.2196604686
0.374004092
0.2196604073
0.3821388467
0.2196604725
0.2196605377
0.2196605318
0.2196604775
0.3963674112
0.3717626454
0.2196603873
0.3703386496
0.2196605009
0.2196605435
0.4055710617
0.2196606199
0.2196606421
0.2196606667
0.2196606438
0.21966058
0.3856765205
0.2196604649
0.3772319339
0.2196604729
0.4110962046
0.2196606171
0.4285449239
0.2196605348
0.219660411
0.2196601981
0.219660344
0.2196604143
0.2196604651
0.2196605041
0.219660544
0.2196605836
0.4274542118
0.2196606622
0.4196699965
0.2196605764
0.219660529
0.2196605003
0.2196604905
0.2196605231
0.2196606016
0.21966069
0.2196606754
0.4274269035
0.2196604452
0.219660198
0.3604543985
0.2196603905
0.3631732065
0.2196604695
0.3837200494
0.2196605375
0.2196605623
0.4130223904
0.2196605689
0.3878048744
0.2196605229
0.3694566175
0.2196605241
0.4052506601
0.2196607041
0.4560624054
0.2196608767
0.2196606547
0.2196604883
0.3662202571
0.2196603515
0.3569763363
0.2196604439
0.362441304
0.2196604971
0.3786430356
0.2196605377
0.2196605503
0.2196605357
0.2196605232
0.219660512
0.2196605051
0.2196605147
0.2196605555
0.424629708
0.2196607257
0.4478164236
0.2196606309
0.4056575296
0.2196603043
0.219660395
0.2196604366
0.2196604657
0.219660489
0.2196605103
0.2196605277
0.2196605407
0.3787777142
0.3757407073
0.2196605109
0.3612399955
0.2196604883
0.3672763686
0.2196605184
0.2196605628
0.2196606045
0.2196606435
0.2196605623
0.2196604532
0.2196603634
0.367732371
0.2196604699
0.3618635072
0.2196605061
0.2196605235
0.3695217284
0.2196605581
0.2196605678
0.2196605366
0.2196604995
0.2196604689
0.219660459
0.3643929238
0.2196604768
0.3800215986
0.2196605261
0.394863456
0.2196605123
0.2196604392
0.2196604212
0.2196604819
0.2196605077
0.2196605233
0.2196605306
0.2196605437
0.2196605628
0.3922244317
0.2196606133
0.219660568
0.3872970663
0.3787717589
0.2196604321
0.2196604303
0.2196604495
0.2196604712
0.2196604895
0.2196605076
0.2196604943
0.3947590526
0.3970075621
0.3882340832
0.2196605501
0.3860267769
0.2196605716
0.3913415399
0.2196606061
0.2196606502
0.2196606885
0.4162457866
0.2196605507
0.3931211903
0.2196604322
0.3785067896
0.3728140335
0.219660453
0.3679278866
0.2196605017
0.2196605055
0.2196604952
0.2196605024
0.219660564
0.2196605981
0.2196606201
0.2196606247
0.4069095091
0.2196606591
0.4351707825
0.2196607865
0.2196607042
0.2196606284
0.2196605625
0.2196605015
0.2196604484
0.2196604254
0.2196604415
0.219660466
0.2196604901
0.389439717
0.2196604673
0.3996496325
0.2196606123
0.4054087533
0.2196606688
0.219660669
0.2196606727
0.4271154038
0.2196607888
0.4513379945
0.2196607542
0.423813909
0.219660652
0.4034201524
0.2196605346
0.3902214166
0.3825200106
0.2196604721
0.2196605009
0.2196605284
0.399052664
0.219660487
0.2196605727
0.2196606009
0.2196606157
0.4009722907
0.2196606348
0.2196606782
0.2196607458
0.2196608056
0.2196607314
0.2196606762
0.2196606269
0.2196605707
0.2196605107
0.2196604542
0.381340152
0.2196604411
0.379999342
0.2196604856
0.219660427
0.3811978223
0.219660526
0.384878394
0.2196605552
0.2196605634
0.391748106
0.2196606337
0.2196606935
0.2196607425
0.4130550303
0.2196606343
0.389419749
0.2196605328
0.3814900565
0.2196604428
0.2196604275
0.2196604297
0.2196604428
0.2196604634
0.2196604096
0.2196604137
0.2196604888
0.219660499
0.3728060851
0.2196605107
0.2196605341
0.2196605756
0.3967346636
0.219660665
0.2196606216
0.2196605827
0.2196605415
0.3733785582
0.2196604603
0.3712810009
0.2196604338
0.3707762509
0.2196604408
0.2196604491
0.396720677
0.2196603835
0.3635833084
0.2196604585
0.2196604582
0.2196604634
0.3697059048
0.2196605179
0.2196605561
0.3844017214
0.2196605621
0.3724079534
0.2196605084
0.2196604843
0.2196604592
0.2196604463
0.2196604497
0.2196604442
0.2196604422
0.3952998152
0.2196604844
0.2196603474
0.2196604138
0.2196604168
0.3650187838
0.2196604209
0.2196604425
0.3697748859
0.2196605107
0.2196605335
0.2196605217
0.2196605024
0.3660743536
0.2196604781
0.2196604638
0.3678798043
0.2196604598
0.3718739782
0.2196604433
0.2196604944
0.219660759
0.2196602914
0.369774645
0.219660368
0.2196603749
0.3712929634
0.2196604174
0.2196604579
0.2196604884
0.3743693839
0.2196604954
0.3704133368
0.2196604748
0.2196604777
0.3689262755
0.2196604645
0.2196604627
0.2196604468
0.2196604217
0.3973265842
0.4105306055
0.2196601844
0.2196602688
0.3799777392
0.2196603154
0.219660339
0.3773199707
0.2196604238
0.2196604503
0.2196604612
0.2196604564
0.2196604456
0.3724898834
0.2196604541
0.219660444
0.2196604343
0.2196604231
0.3729190962
0.2196603691
0.21966032
0.2196602964
0.3549397479
0.3745328632
0.5115735083
0.3468982611
0.3450951489
0.3610780523
0.3683593206
0.3813400511
0.3810092726
0.384042704
0.3858789346
0.3872026386
0.3778946927
0.3708508115
0.3579947213
0.5016404039
0.3743353278
0.5206124701
0.3478297251
0.3383292903
0.3694269218
0.4154541656
0.3907417721
0.3427551416
0.3339135646
0.3494552935
0.5420199928
0.3885320826
0.3787995589
0.3692839228
0.3661423715
0.3657479482
0.3644993826
0.3613030883
0.3531573664
0.361882854
0.3852980148
0.3771262321
0.3618661182
0.352481353
0.3711387838
0.4153537067
0.348937354
0.3326097056
0.340447653
0.3683382638
0.4029654666
0.4288539713
0.5774831653
0.3909236693
0.379586434
0.3732688023
0.3784576321
0.3759873605
0.3711574094
0.3767237013
0.4055810465
0.3961432739
0.3714428276
0.3585864694
0.3714814904
0.3691968544
0.3448539538
0.3371432635
0.3603700282
0.4059666094
0.4432152971
0.5892738549
0.4776574126
0.4435732129
0.3930139925
0.3772103359
0.3750904388
0.3783197519
0.3793851349
0.404486961
0.4663265341
0.4363517095
0.3842244783
0.3547033464
0.3735843956
0.3618553725
0.3485433621
0.3447588975
0.3582361781
0.3848889067
0.4189322751
0.4761631429
0.7238653628
0.4879072558
0.4011607569
0.3585643569
0.3482783456
0.357839152
0.3797987014
0.4257309426
0.5225989658
0.469742958
0.4034744409
0.3591283548
0.3851632697
0.386522446
0.3802522969
0.3761248817
0.3730217524
0.3734424859
0.3805483307
0.4168334691
0.5226867535
0.4341658727
0.3828774017
0.3492259478
0.3535375341
0.3838921259
0.4824475544
0.7245867969
1.179386522
1.179386455
0.5188437813
0.3904896553
0.3751429664
0.3738397719
0.3758664795
0.3723699123
0.3688869753
0.3574345063
0.3582234833
0.3672581388
0.4089337232
0.3790962933
0.3488253427
0.3345823179
0.3378138621
0.351205225
0.3999566474
0.492227737
0.6874529807
1.17938639
0.5120250078
0.3948397997
0.3556130511
0.3545662245
0.3524023845
0.3586427205
0.3509273621
0.3431272437
0.3460954055
0.352464184
0.3699136817
0.3675307751
0.348802387
0.3483875676
0.3444947092
0.350322084
0.3576647877
0.391217682
0.4365779271
0.5307752703
0.3931059535
0.3576213378
0.3643280154
0.3554090283
0.3497133096
0.3653645557
0.3592983868
0.3443256404
0.3500154043
0.3469663879
0.3512579504
0.3578774451
0.3638123021
0.3696981823
0.3638635192
0.3685737932
0.3534168958
0.3588300623
0.3674683321
0.4007868832
0.3472827231
0.5106974809
0.3798726915
0.3562072608
0.352865856
0.3675405596
0.4835567209
0.3605643049
0.3625686959
0.3714377386
0.3835355379
0.3729531953
0.3874470252
0.3976408028
0.3777279191
0.3768548523
0.3580174626
0.343441647
0.3398811332
0.3440857425
0.3339687801
0.397956622
0.4036700399
0.3696888991
0.3658808405
0.3744170336
0.3719311463
0.3792209827
0.3826228887
0.4127910845
0.4623079001
0.4003217441
0.3894831423
0.3966037703
0.3919677019
0.4055055676
0.3960418267
0.3576899295
0.3420373824
0.334911775
0.5027591254
0.4948885994
0.3701344734
0.3762126335
0.3924259969
0.3837607617
0.3676705613
0.3871551017
0.4168577388
0.4938873014
0.6481731192
0.4020126387
0.3736698469
0.3699002157
0.3827654666
0.395587835
0.399718017
0.3747030877
0.3448909105
0.3366848373
0.3761424502
0.4334808503
0.4075231386
0.4466605696
0.5143139122
0.4723391636
0.3962945124
0.4022846993
0.4731370631
0.6764363004
1.179387008
0.4023540347
0.3818322603
0.3794206986
0.4206373237
0.426800907
0.4415191356
0.427620012
0.3686682567
0.3622779608
0.4145191551
0.3850872299
0.3701621482
0.3699841304
0.3960677877
0.385793895
0.3736250417
0.3661115239
0.3768182916
0.4269530648
0.6058755663
0.3833824135
0.352913752
0.3455989905
0.3615580878
0.371842571
0.3933477591
0.4101009341
0.3819323477
0.3787492957
0.3567603095
0.3390893543
0.3587987472
0.3513893635
0.3720167604
0.3688882286
0.3616038572
0.3575681095
0.354176647
0.3832026298
0.5042450446
0.3773590049
0.3449378559
0.3470660412
0.3598370644
0.3742942574
0.3815075636
0.3842205812
0.3796872265
0.4893842355
0.3374883019
0.3367080329
0.3393057632
0.3362074924
0.3513578228
0.3632622525
0.3545027858
0.348708932
0.3462443434
0.3690593638
0.4209546873
0.3571780858
0.3376206841
0.3455424585
0.3660246175
0.3836844693
0.3911437965
0.373540381
0.3713488994
0.3536848155
0.3422233502
0.3949827251
0.3315368285
0.3343646323
0.3439024976
0.3578018636
0.3582973838
0.3606650103
0.3545962794
0.3604376272
0.3869168456
0.3472235611
0.3459062274
0.353306538
0.3618436204
0.4767041948
0.3860252714
0.3607531315
0.357501097
0.3531012663
0.3940159217
0.5407414611
0.3266098943
0.3337123496
0.3497074155
0.3730538908
0.3753004264
0.3703347631
0.3628397149
0.3551663965
0.3621587878
0.3440724471
0.3582162098
0.3718769314
0.3684197235
0.3873305925
0.3904512106
0.3606138945
0.360142914
0.3759786505
0.471546747
1.179385636
0.3345963937
0.3468237454
0.3665673938
0.3849751116
0.39430833
0.3754641218
0.352551875
0.3466963452
0.3583148107
0.3605247148
0.3741233052
0.3762507265
0.3613808896
0.3761013014
0.3651039969
0.3421215445
0.3433245266
0.3412597121
0.3751173917
0.484949777
0.3496595145
0.358196787
0.3808051117
0.3895292716
0.4956158215
0.3821822251
0.3507258328
0.3466408131
0.353693868
0.3693646957
0.3699658029
0.3672863077
0.3452437534
0.3544253052
0.3500211565
0.3379696887
0.3401533762
0.3317488111
0.3375867811
0.3847269241
0.4906143256
0.5945388507
0.6236879198
0.5150668765
0.6648734215
0.5888126124
0.6377711779
0.6969329722
0.6956366535
0.6511274358
0.661881759
0.5906539298
0.5750406728
0.5648723608
0.535539303
0.5445569217
0.6450020943
0.6258114573
0.5400492767
0.6765633859
0.5281752815
1.17938579
1.179385772
0.4995219917
0.5425265204
0.6405141008
0.7897979745
0.8877721571
0.7325662382
0.7520223274
0.6343146747
0.6477822325
0.5446893159
0.6176412099
0.5111467931
0.5664248328
0.8020025415
0.7756838582
0.6014610897
0.536735398
0.6364949313
1.179385741
0.6423947714
0.5207041011
0.6771476371
0.8344718506
1.17938633
1.179386404
1.179386399
1.1701263
0.7696948184
0.6228930681
0.5720450264
0.5490961294
0.5515580817
0.6409460255
0.71824383
1.179385889
0.7052301493
0.5576741628
0.5240177765
0.6186082255
0.5070652846
0.5673904097
0.7566114093
1.179386265
1.179386312
1.179386413
1.179386458
1.179386386
0.7114271984
0.6519432025
0.6290574961
0.5443628245
0.6606271478
0.7251913729
1.179386129
1.179386112
0.7201853607
0.5637775527
0.5182690614
0.5126911942
0.5091079427
0.623914095
0.6338160537
0.6992673252
1.174010438
1.1793862
0.7681681557
1.179386218
0.8819564893
0.6477506591
0.5050963561
0.634212998
0.618337439
0.7363501331
1.17938616
1.179386077
0.7582589808
0.6921307208
0.5973910147
0.5699061237
0.5918485587
0.5703199316
0.627509466
0.62230395
0.6890571044
0.8627057657
1.179385957
1.002251446
0.6951620269
0.5234781269
0.503858035
0.6639576799
1.016009114
1.179385896
1.17938585
0.7893577262
1.179385613
0.7088486809
0.5313553725
0.5441293336
0.5572888189
0.5542162742
0.5438612261
0.5357752323
0.5625714299
0.6251133979
0.6696870874
0.6613688299
0.6249011935
0.4713604622
0.5920920321
0.5521078819
0.671771504
1.179385907
1.179385906
1.179385618
1.179385567
0.6871182227
0.5156635248
0.5940757587
0.5246192182
0.5914706937
0.5228423279
0.597677705
0.5082302805
0.6286747585
0.5548308426
0.5420526393
0.5039118123
0.5016943924
0.4883660471
0.5009789433
0.5684350104
0.7193614949
0.7099802551
0.7176998382
0.7280479092
0.5560217927
0.6338841377
0.5082481751
0.5317429055
0.564515499
0.5406327005
0.5033515289
0.5178809604
0.5403476088
0.5822554259
0.6481685753
0.5585276752
0.6140369074
0.6017290667
0.5304121241
0.6101711341
0.5523606796
0.6079981189
0.678462889
0.5289037743
0.5427989081
0.5650477687
0.5131699322
0.6328776167
0.5961928489
0.5788770614
0.5430079119
0.6514886623
0.656496669
0.6949982588
0.7214624265
0.6270606855
0.6193748295
0.5791571187
0.5605679663
0.5141666879
0.4883391025
0.6102556313
0.5048859837
0.4681122397
0.6711466536
0.5485715184
0.5567646454
0.6143183639
0.6561222139
0.6031446163
0.600186758
0.6595541319
0.8803386427
1.179386474
1.045604015
0.6709939927
0.6881109119
0.6116327701
0.6466582644
0.5973063576
0.5269519571
0.4855167078
0.469809137
0.6087463135
1.179385956
0.6934775859
0.6617807564
0.7048922382
0.8067963815
0.7114649149
0.6882952016
0.7403281894
1.179386566
0.7881019663
1.179386611
0.7478978783
0.6178102891
0.702597317
0.6531376756
0.6601880888
0.5885622177
0.62351297
0.5044352114
0.6149067705
0.6961332441
0.9638846977
1.179386387
1.179386478
1.179386521
1.179386574
1.068365459
1.044700014
1.179386603
1.179386484
1.179386666
1.164613744
0.7398106817
1.179386516
1.179386351
1.130947786
0.8449466302
0.593715408
0.6522487733
1.179385923
0.6409754202
0.6648342497
0.6982159302
0.9002801074
0.7132881385
0.6519335365
0.7198600093
0.674352204
1.17938658
0.7877949919
1.132536399
0.6908428883
0.6445647837
0.6777281586
0.6920433952
0.6765797997
0.6573390715
0.5873785474
0.8116715657
0.5928714884
0.5107400397
0.5715798313
0.5981010999
0.668876024
0.6318256435
0.6770951429
0.55493984
0.7082225059
0.9120268555
1.179386507
0.8361269317
0.7046592861
0.5771689882
0.6707502424
0.5967068139
0.5950142219
0.5933162431
0.6332240225
0.6628009118
0.519454892
0.6562330117
0.6295189338
0.5166779719
0.6365512395
0.5691652688
0.5365278594
0.5259272703
0.5537757878
0.6961618828
0.7107336083
0.6480642095
0.53907403
0.6466282523
0.5653994544
0.5856851812
0.6300528
0.5771815536
0.5663280049
0.5442576185
0.500510789
0.6069025728
0.4776827426
0.4814831124
0.5148291761
0.5407430031
0.6224019122
0.533651436
0.6446081566
0.6070532292
0.8013728416
0.5557846044
0.5110447244
0.5184719971
0.5443053105
0.5858285093
0.607342859
0.6198351488
0.540065158
0.6387961284
0.666409123
1.179385369
0.4623681495
0.4741197222
0.6068383281
0.5653306284
0.5695484954
0.5586124527
0.5461671487
0.6422150801
0.6258157382
0.5130498904
0.6257450502
0.558007048
0.6221776737
0.6409563671
0.6564745265
0.5816244168
0.5408896722
0.5509445818
1.179385309
1.179385381
0.6215423015
0.5040568722
0.5622989703
0.6280405175
0.6284058733
0.6291790178
0.5354598111
0.5408546194
0.5709379026
0.5962270844
0.5898581608
0.6295755944
0.5960357086
0.6367816371
0.6058317733
0.6316304071
0.5245172983
0.6471775628
0.6183655028
0.7015458431
0.5159709457
0.6396886096
0.6231639049
0.6754347004
0.6810194482
0.6203875157
0.5503885065
0.6547859928
0.5629571224
0.6601449633
0.5915276692
0.5815171836
0.5591912937
0.6393643749
0.5827782634
0.5344056307
0.5193223265
0.5044018795
0.6638309463
0.5968818652
0.6095938591
0.7636457892
0.8051623461
0.6826370649
0.7489605932
0.8269793883
0.9103571506
1.005907854
1.008838069
0.9130553515
0.8355115605
0.7840150626
0.779037354
0.7781387772
0.7815944886
0.7100732472
0.857270294
0.8314932091
0.7243701046
0.6683184659
1.158034169
1.179385292
0.881894056
0.6669248768
0.7977940625
0.9743866537
0.8861159246
1.17938557
1.179385542
0.8784314846
0.9344306769
0.7985753224
0.7286029611
0.6964026503
0.6631161004
0.8095528392
1.179384891
0.8545732393
0.9017276728
0.8323809161
1.179385648
1.046899868
0.6904966654
0.7545219971
0.9964206709
1.179385533
0.9143036817
0.9320181556
1.179385572
1.179385556
1.179385649
0.9057294975
0.7730274068
0.7668410844
0.7317005727
0.932066859
1.152492695
1.179384995
1.148239651
0.8011812403
0.665339325
0.7057417891
0.6898984315
0.8646608026
0.8392824258
1.17938544
1.179385469
1.17938551
1.179385554
1.179385542
1.178025799
0.9310597639
0.7468498846
0.6868787115
0.7935084528
1.179385181
1.179385162
1.179385182
1.179385172
0.8018482221
0.6338135801
0.6498410257
0.6848187812
0.7937195821
0.9969115357
1.179385331
0.895066395
1.179385337
1.1793854
1.179385393
0.8523520744
0.8346591655
0.6512896737
0.669058563
0.8522993231
1.179385225
1.179385217
0.9267126164
1.179385096
0.7958330727
0.6762260875
0.7223044962
0.7407879733
0.7455923247
0.8082362038
0.8824708926
1.034685954
1.17938515
1.179385114
1.179385164
0.9523319418
0.6832815023
0.6146145907
0.8783380002
1.179384996
1.179385097
1.179385094
1.123188608
1.179384861
0.9341999362
0.6481480951
0.6864669166
0.7207151993
0.710994881
0.6874240586
0.6926896227
0.784356313
0.8311072306
0.940297163
0.8115902597
0.6975332438
0.5865432242
0.5818049525
0.7522788003
1.134500639
1.179384996
1.17938506
1.17113898
1.179384756
0.8935809183
0.6397120346
0.6618000186
0.7243559963
0.7452930809
0.6956653026
0.644248654
0.6514783513
0.6844082114
0.7186917455
0.6977854454
0.6502261268
0.6547631017
0.6220267045
0.6306394234
0.7963229329
1.065148908
1.179384901
1.179384684
1.004240688
0.7094297209
0.6660471801
0.6634502887
0.7579051734
0.8127570615
0.7438089514
0.6605446597
0.6880094822
0.7522545892
0.8517846064
0.8671001658
0.783270543
0.764970109
0.7476109238
0.6771286653
0.6327829797
0.7334050903
0.8376813239
0.9138160084
0.700283813
0.7396957545
0.677034087
0.6845791049
0.824443109
0.8942083245
0.817746891
0.7312131585
0.7863869561
0.9586056829
0.8567106058
1.179385743
0.8354802116
0.8781670733
0.8082603252
0.7436548172
0.6594004943
0.6140749378
0.652645361
0.6464944143
0.7861836135
1.179385616
0.6777393502
0.7668105565
0.9256479606
0.8405698944
0.9099593079
0.8412717608
0.9094930223
0.8893112828
1.179385737
1.179385793
1.123444781
0.9591471115
0.8314078071
0.8473068248
0.7908897283
0.7547856601
0.6223644506
0.5933859544
0.8333929592
1.179385354
0.7845433169
1.005958729
1.179385818
0.8810216657
1.167114295
0.8854289287
1.0518228
1.179385784
1.166685544
0.938832119
1.179385946
1.178800622
1.179385895
1.012277012
0.9003080202
0.806961357
0.6633219358
0.6279259598
0.8121355116
1.179385496
1.179385638
1.179385665
1.179385753
1.179385793
1.179385817
1.179385884
1.179385879
0.9467269903
1.113287053
0.9501607258
1.179385918
1.179385828
1.17938573
1.179385603
1.179385588
1.179385728
0.8402833681
1.017199591
1.179385415
0.9182334138
1.043547045
1.179385761
1.179385814
1.1793859
0.886055397
1.038983266
1.179385903
1.179385826
1.135926894
1.179385871
1.179385924
1.179385887
1.179385811
1.146059576
1.036124522
0.8168979392
0.7872371708
0.8068569504
0.814374129
0.7142044564
0.8408192047
0.9323347998
1.037746982
0.9869811282
0.8754739336
0.8431402167
0.9221017093
0.9059965372
1.179385771
1.179385774
1.012678144
0.853478989
0.9557694551
0.8966060214
0.8379365007
0.8001050138
0.756372035
0.9201594828
0.7644435258
0.6336652966
0.7214397053
0.7678126483
0.8549395113
0.8067038068
0.7858500606
0.8195138732
0.8268231459
1.170720962
1.179385577
1.006834548
0.8249823534
0.8095619712
0.800988536
0.806183237
0.7938877183
0.7614949537
0.7446706268
0.7453749724
0.7999193887
0.7890474965
0.6365356344
0.6688789487
0.7393110915
0.7690400884
0.7470545624
0.7489249734
0.780355344
0.8317073042
1.179385475
0.8192943844
0.7076051607
0.7007040114
0.7301576528
0.7583224004
0.7879251724
0.7683362694
0.7255522453
0.7030910894
0.9831021287
1.179385176
0.5966917306
0.6286693343
0.7101995188
0.7627627287
0.7694957565
0.7806426315
0.7611062418
0.8446294943
0.9541490378
0.6996194243
0.6870987413
0.7220322867
0.7843930218
0.874777285
0.7893549355
0.8841608534
0.7610787615
0.7347629121
0.8313844415
0.8568224328
0.6150165393
0.6556438786
0.7580488123
0.8386082785
0.8462972162
0.7987430619
0.7391423944
0.7834365695
0.8122118887
0.9951637037
0.8398502308
0.8600764725
0.9079602209
1.001993426
0.9882096807
0.8812731175
0.7763783526
0.7071754384
0.8211762986
1.061631635
0.6688529936
0.74550972
0.9020824935
1.000280877
0.9812674853
0.8052298694
0.7521189747
0.7839310541
0.8486922569
1.159507164
0.8150012177
0.8606561185
0.8742058825
0.9672444484
0.9428187624
0.8429835223
0.79749482
0.8023308146
0.6952676431
0.7370136776
0.7323681885
0.9287526029
0.9620110499
0.8515311702
0.9549325373
0.9941989533
1.061274762
0.9922627036
1.179384893
1.075720387
0.9565360554
0.9352055927
0.9436962901
0.9514052224
0.9281940911
0.8680702361
0.9713803124
0.9580051555
0.8379435666
0.7908434499
0.9205149459
1.133538002
0.9315769497
0.841360377
1.016757415
1.179384984
1.17938494
1.179384916
1.179384874
1.179384838
1.105249542
0.9745327896
0.8731504427
0.82223727
0.7753315446
0.8911616671
1.066399313
1.137058107
1.130329144
0.8992695612
1.179385098
1.109816538
0.8829269406
0.9779305423
1.179384936
1.179384917
1.179384925
1.179384934
1.179384926
1.179384912
1.179384911
0.9451616754
0.9513451117
0.8524692257
0.8546155016
1.172348808
1.170385431
1.175984899
1.179384401
0.9666326344
0.8845197979
0.8909061915
0.9041480417
1.151746317
1.179384787
1.179384799
1.179384819
1.179384865
1.179384908
1.027057961
1.179384888
1.179384896
0.9343513438
0.8103962804
0.9453655738
0.9745868762
1.179384496
1.179384519
0.9955493766
0.9710091081
0.7675624412
0.817352052
0.8872877037
1.022186921
1.179384738
1.179384628
1.179384635
1.179384707
1.179384797
1.179384789
1.179384732
0.9220447675
0.8272775833
0.8967568192
1.065629582
1.179384466
1.177010583
1.172627516
1.179384339
0.9341460902
0.7974399875
0.8549425472
0.8652302724
0.8863639519
0.9046319279
1.023074675
1.148800296
1.178691687
0.9874809346
1.175923925
1.154804864
0.8855278811
0.7096126939
0.982098855
0.9413829222
1.179384448
1.178067001
1.162690065
1.000184167
1.052018432
0.7518196781
0.8319761533
0.8872188901
0.8605691128
0.818018253
0.797274695
0.8777529076
0.9594915036
1.072575987
0.9257856089
0.8911769967
0.6957537758
0.6639237307
0.848259498
1.179384281
1.179384366
1.000219205
1.179384426
1.179384257
0.9478524018
0.7507661718
0.8654714959
0.9466377162
0.9603446714
0.8723366066
0.775380764
0.7772337359
0.820047628
0.915913332
0.8480787681
0.8046161959
0.8135724371
0.7637362734
0.8593095601
0.8905420425
1.179384186
1.179384282
1.168206593
0.9465249621
0.8280248182
0.7834151175
0.8468235992
1.041810052
1.077984842
0.8954164246
0.8225106748
0.8969579349
0.9417907785
1.042152693
1.073747328
0.9207184421
1.027441572
0.9412699985
0.8377489982
0.7461820759
0.8144879752
0.8969969175
1.034641883
0.8122511319
0.9227601123
0.8059574683
0.9184526679
1.130465529
1.173383336
1.064380056
0.9104747683
0.9498508308
1.132726129
1.179384981
0.9831147653
1.179385169
1.127948604
1.04414465
0.8976664776
0.8133675388
0.7335357704
0.7525050069
0.7362609033
0.7482000771
1.17938488
0.8262813386
0.9933885718
0.9671063115
1.179385198
0.9756212906
1.035993196
1.048492513
1.179385048
1.179385112
1.179385143
1.179385218
0.9899577702
1.179385266
1.073695205
0.9788442171
0.8872611459
0.8661561575
0.7060450865
1.042775138
1.179384884
0.9736726835
1.179385109
1.179385148
1.179385195
1.179385244
1.179385259
1.179385182
1.177341103
1.153161109
1.179269633
1.179385229
1.179385239
1.17938521
1.179385186
1.148109672
0.9180337394
0.8240950342
0.7362032032
1.00073828
1.179384908
1.17938501
1.179385084
1.179385128
1.179385174
1.179385208
1.179385222
1.179385203
1.132685562
1.110113035
1.146316597
1.17938521
1.179385188
1.018396482
0.9997531151
1.179385033
1.179385069
1.060855953
0.9299002581
1.179385016
1.179385095
0.9799895021
1.179385095
1.179385146
1.179385208
1.179385274
1.1793853
1.03291542
1.17288669
1.053215442
1.179385179
1.179385181
1.179385139
1.179385081
1.179385044
1.179385054
1.153333489
0.9819948166
1.165213653
1.179385027
0.9039450965
1.073552438
1.179385137
0.9796186796
1.179385207
1.179385281
1.17238928
1.179385189
1.179385144
1.179385131
1.022472978
1.17938506
1.17938503
1.179385013
0.9624897095
1.034405194
0.9693809009
0.9005040335
1.059692061
0.9784746598