/*--------------------------------*- C++ -*----------------------------------*\
  =========                 |
  \\      /  F ield         | OpenFOAM: The Open Source CFD Toolbox
   \\    /   O peration     | Website:  https://openfoam.org
    \\  /    A nd           | Version:  7
     \\/     M anipulation  |
\*---------------------------------------------------------------------------*/
FoamFile
{
    version     2.0;
    format      ascii;
    class       surfaceScalarField;
    location    "60";
    object      rhoPhi;
}
// * * * * * * * * * * * * * * * * * * * * * * * * * * * * * * * * * * * * * //

dimensions      [1 0 -1 0 0 0 0];

internalField   nonuniform List<scalar> 
47120
(
1.043191724e-06
4.201956796e-07
4.983529428e-06
-1.808067313e-06
-1.467433582e-06
8.280935999e-07
2.821405464e-07
3.979934445e-06
-1.434933349e-06
5.396751333e-07
2.454243349e-07
3.44161785e-06
-1.345709814e-06
3.082763264e-07
1.990763815e-07
2.996355597e-06
-1.155006213e-06
1.193598138e-07
3.747696739e-08
2.668466022e-06
-7.31820543e-07
-8.984286057e-08
-1.268419243e-07
2.584209789e-06
-3.587632526e-07
-1.778525852e-07
-2.545165262e-07
2.600758974e-06
-1.637334319e-07
-2.580606347e-07
-3.07525133e-07
2.842189063e-06
-9.318427682e-08
-2.340733899e-07
-2.413094029e-07
3.208957269e-06
-1.385912197e-07
-2.239484183e-07
-9.99080138e-08
3.711530236e-06
-2.667075986e-07
-1.875587479e-07
7.706907881e-08
4.21011443e-06
-4.316018361e-07
-1.320539648e-07
1.999636557e-07
4.541289176e-06
-6.027156161e-07
-7.062619432e-08
2.822952303e-07
4.58573172e-06
-7.523186934e-07
-1.354447999e-07
2.941300197e-07
4.480869686e-06
-9.057100396e-07
-2.21502243e-07
3.142676776e-07
4.373288002e-06
-1.185734721e-06
-2.830557682e-07
2.738590127e-07
4.372101183e-06
-1.413071824e-06
-2.955464274e-07
2.213231153e-07
4.328169705e-06
-1.511625033e-06
-3.120953635e-07
2.147616516e-07
4.318323302e-06
-1.573649406e-06
-5.960350767e-07
2.749332562e-07
4.388688863e-06
-1.590033231e-06
5.975418397e-07
4.762968798e-06
-1.723743722e-06
-1.792347703e-06
8.126823091e-07
1.53278324e-07
4.577552008e-06
-1.711103113e-06
6.832768152e-07
7.981165308e-08
3.263253515e-06
4.559940492e-07
1.070145764e-07
2.759144366e-06
1.560934128e-07
-6.754770644e-09
2.542853444e-06
-6.110324365e-08
-1.429466849e-07
2.283275249e-06
-2.304108557e-07
-2.400220771e-07
2.182980194e-06
-2.477697957e-07
-3.193313066e-07
2.198478841e-06
-2.45532834e-07
-3.487313367e-07
2.36663053e-06
-1.045789833e-07
-3.053218455e-07
2.604400357e-06
-1.255506776e-08
-1.657643738e-07
3.043910577e-06
4.986022693e-10
2.603592673e-09
3.544641762e-06
-1.063175132e-08
1.300473442e-07
3.922009546e-06
-4.158911977e-08
1.693702832e-07
4.065592565e-06
-1.125923029e-07
1.32320322e-07
4.034326626e-06
-2.287143434e-07
2.649338112e-08
3.908530483e-06
-2.481170357e-07
-1.310069293e-07
3.765738541e-06
-8.590172532e-08
-2.837786233e-07
3.533175779e-06
-1.793570061e-09
-2.971215998e-07
3.527989056e-06
-2.573931787e-07
-1.993190249e-07
3.790658818e-06
1.956114656e-07
4.316503323e-06
-1.448819229e-06
8.363503534e-07
1.538779094e-07
4.762418626e-06
-1.676483948e-06
6.948097858e-07
1.320582161e-07
3.264275225e-06
3.535919543e-07
8.050054755e-08
2.927180001e-06
4.533244295e-08
3.732482699e-09
2.44528824e-06
-1.853203257e-07
-8.035831747e-08
2.171231555e-06
-3.327674551e-07
-1.232115932e-07
2.021269646e-06
-2.95309342e-07
-1.370174404e-07
1.977547917e-06
-2.13185643e-07
-1.151111224e-07
2.087075544e-06
2.163816172e-08
-6.889485566e-08
2.169178519e-06
1.719666057e-07
1.623838429e-08
2.485322857e-06
1.565745638e-07
8.780523323e-08
3.021105609e-06
4.447882011e-08
1.289477377e-07
3.493368504e-06
-8.119795854e-08
1.107893204e-07
3.771750819e-06
-2.349812667e-07
4.919231844e-08
3.836626364e-06
-3.882672259e-07
-8.355179102e-08
3.718551338e-06
-3.733138798e-07
-2.234801972e-07
3.385727726e-06
-5.769640087e-08
-3.357133547e-07
2.950284516e-06
1.219521615e-07
-3.516822617e-07
2.985727094e-06
-1.334608461e-07
-2.408572898e-07
3.44031529e-06
1.308289366e-07
4.112423872e-06
-1.3592805e-06
8.501399454e-07
1.576181451e-07
5.206449217e-06
-1.557123621e-06
6.185395288e-07
1.292185931e-07
3.704911211e-06
2.921649795e-07
8.672187246e-08
3.069656882e-06
1.730813718e-09
7.952985486e-08
2.549721744e-06
-1.991566283e-07
8.481316095e-08
2.272930776e-06
-3.236725466e-07
1.36560014e-07
2.110770422e-06
-2.605342506e-07
1.994748181e-07
2.078544482e-06
-1.5391228e-07
2.591027143e-07
2.145898333e-06
9.816892067e-08
2.80030228e-07
2.111337268e-06
2.444776908e-07
3.434588908e-07
2.276665112e-06
2.253061022e-07
3.429044115e-07
2.711389852e-06
2.934699485e-08
2.844936702e-07
3.185875047e-06
-1.60046126e-07
2.252264564e-07
3.493359374e-06
-3.768717842e-07
1.291873728e-07
3.640080107e-06
-5.231364812e-07
1.407649841e-08
3.508983987e-06
-4.562281267e-07
-1.455216785e-07
3.109430513e-06
-5.317828952e-08
-2.949158409e-07
2.630174758e-06
2.007491901e-07
-3.249872773e-07
2.7248423e-06
-4.677672002e-08
-1.634292575e-07
3.21103843e-06
2.018562118e-07
3.917423203e-06
-1.207457198e-06
8.637565541e-07
2.181285248e-07
5.496438962e-06
-1.456879261e-06
6.003084091e-07
1.771804226e-07
4.065797893e-06
3.156926217e-07
1.339561562e-07
3.329434104e-06
4.815913749e-08
1.676908487e-07
2.865248563e-06
-1.150015711e-07
2.482112133e-07
2.641015943e-06
-2.420444363e-07
3.686949465e-07
2.479216595e-06
-1.945628676e-07
4.911200395e-07
2.368439666e-06
-1.146218274e-07
5.545737908e-07
2.340744264e-06
1.571136629e-07
5.938617766e-07
2.094669984e-06
2.588186126e-07
5.572492315e-07
2.325772426e-06
1.831383922e-07
4.862257176e-07
2.608656027e-06
-2.496215479e-08
3.725982091e-07
2.922959036e-06
-2.682828078e-07
2.965950885e-07
3.158526587e-06
-5.235302092e-07
2.13263183e-07
3.30635493e-06
-7.050203027e-07
1.424301236e-07
3.181063635e-06
-5.992363038e-07
2.445351602e-08
2.781710846e-06
-5.546280628e-08
-2.023628872e-07
2.289847047e-06
3.576739086e-07
-2.5291166e-07
2.430774071e-06
1.072625376e-07
-3.687347164e-08
3.007899359e-06
2.556101587e-07
3.751546538e-06
-1.015756711e-06
8.793677986e-07
3.058840735e-07
5.503114285e-06
-1.471698237e-06
5.878643916e-07
1.937322735e-07
4.200975339e-06
3.60996885e-07
1.482327467e-07
3.505398514e-06
1.458963316e-07
1.622625163e-07
3.097911733e-06
1.72683249e-08
2.502030273e-07
2.887559816e-06
-1.100719685e-07
3.523273489e-07
2.72212514e-06
-1.277470559e-07
4.746269496e-07
2.594474189e-06
-7.867294682e-08
5.388864112e-07
2.555142758e-06
1.1558161e-07
5.822273235e-07
2.388951e-06
1.848473637e-07
5.03705536e-07
2.594919148e-06
6.874509601e-08
3.991555971e-07
2.737613555e-06
-1.261901341e-07
3.124909458e-07
2.854464892e-06
-4.083581113e-07
2.625119451e-07
2.956336544e-06
-7.504586615e-07
3.099571515e-07
2.927643294e-06
-9.826228748e-07
4.263312628e-07
2.674834073e-06
-9.052641137e-07
6.4674764e-07
2.022492711e-06
1.109686556e-09
8.69691125e-07
7.788803664e-07
6.258338165e-07
6.074990557e-07
1.248029346e-06
2.977167054e-07
5.303822417e-07
2.477118741e-06
4.555436738e-07
3.417731691e-06
-7.334103617e-07
8.558454451e-07
2.262866627e-07
5.136792541e-06
-1.53815063e-06
5.823466826e-07
9.085691581e-08
3.955668337e-06
3.836967489e-07
4.136666258e-08
3.345903293e-06
2.394998013e-07
4.755989982e-08
2.965162708e-06
1.115664907e-07
1.011982563e-07
2.780869893e-06
1.414661756e-09
1.537098555e-07
2.639704164e-06
-6.700777011e-08
2.172269284e-07
2.575101348e-06
-5.447593922e-08
2.4616055e-07
2.564039848e-06
3.848972991e-08
2.673524608e-07
2.55619318e-06
7.564287609e-08
2.213339921e-07
2.720810072e-06
-1.590678073e-08
1.594233199e-07
2.762717767e-06
-1.753777089e-07
1.375926126e-07
2.810407821e-06
-3.602934632e-07
1.343207059e-07
2.888808283e-06
-6.367121303e-07
2.435796682e-07
2.897176977e-06
-7.73004857e-07
4.539474401e-07
2.721021308e-06
-7.058999989e-07
7.607984978e-07
2.35002741e-06
-2.300166355e-07
1.072026625e-06
1.854835706e-06
4.748389958e-07
1.134257078e-06
1.24322315e-06
2.303281525e-07
8.252403209e-07
2.420657411e-06
4.91154401e-07
3.359825214e-06
-6.495014442e-07
8.231719892e-07
1.539320569e-07
4.639243288e-06
-1.550750262e-06
5.817980136e-07
-3.145398432e-09
3.622163659e-06
4.037379705e-07
-7.750061037e-08
3.089246579e-06
2.827452513e-07
-6.937847771e-08
2.773552645e-06
1.51331155e-07
-4.612577841e-08
2.579507647e-06
5.208799043e-08
-2.413344045e-08
2.463842047e-06
-4.314533062e-08
-3.789772837e-08
2.436582764e-06
-4.73017682e-08
-8.951671449e-08
2.466206492e-06
2.980212799e-09
-1.662569681e-07
2.557852993e-06
1.298213414e-08
-1.747643922e-07
2.777445107e-06
-3.667584704e-08
-1.681719694e-07
2.876272453e-06
-1.5785017e-07
-1.525396e-07
2.978480663e-06
-2.469108144e-07
-1.229334534e-07
3.025603591e-06
-4.261086324e-07
-2.394177541e-09
3.055180486e-06
-4.836079396e-07
2.393067136e-07
2.891947278e-06
-4.223687487e-07
5.634387405e-07
2.614708409e-06
-1.689368556e-07
8.644757211e-07
2.353167618e-06
2.213634428e-07
9.911055942e-07
2.02901996e-06
3.179304063e-08
7.351330343e-07
2.609388152e-06
3.248606249e-07
3.321979057e-06
-6.565927423e-07
7.559485114e-07
-1.223682441e-08
4.208739524e-06
-1.412984889e-06
5.50747995e-07
-2.023574648e-07
3.356602193e-06
4.280978383e-07
-3.071440227e-07
2.908239254e-06
3.109358445e-07
-3.260160277e-07
2.660933423e-06
1.711182976e-07
-3.074381398e-07
2.505207875e-06
3.228575641e-08
-2.936498001e-07
2.421750791e-06
-1.003513594e-07
-3.558204612e-07
2.42810893e-06
-1.336152275e-07
-4.430056027e-07
2.404806252e-06
-2.915025599e-08
-5.35563132e-07
2.456037402e-06
5.192138343e-09
-4.580547345e-07
2.836192278e-06
-2.822508545e-08
-3.874712531e-07
3.168466899e-06
-1.263147594e-07
-3.56838899e-07
3.380287591e-06
-1.186315352e-07
-3.193388833e-07
3.428622022e-06
-1.790220318e-07
-2.20909217e-07
3.400088576e-06
-1.739236808e-07
3.40833708e-09
3.209867923e-06
-1.555171589e-07
2.585379887e-07
2.96480467e-06
-6.26338529e-08
4.821692794e-07
2.729899827e-06
2.684037843e-08
5.488592347e-07
2.536749273e-06
-1.559891067e-07
3.548639861e-07
2.760042738e-06
4.594314181e-08
3.312112274e-06
-7.582850336e-07
6.543155586e-07
-1.34736553e-07
3.86563275e-06
-1.180008758e-06
4.83019015e-07
-3.489591664e-07
3.153015965e-06
4.295572573e-07
-4.813021511e-07
2.782394538e-06
3.344715882e-07
-5.369934252e-07
2.56915341e-06
1.853361477e-07
-5.252964329e-07
2.488940878e-06
-2.887103669e-08
-4.965532606e-07
2.461252599e-06
-1.833469967e-07
-5.551928432e-07
2.455979618e-06
-2.297189236e-07
-6.737045043e-07
2.375418168e-06
-1.398550678e-08
-7.76163875e-07
2.333254724e-06
3.385889687e-08
-6.509574645e-07
2.865938881e-06
-2.130724198e-08
-5.661055598e-07
3.468981502e-06
-1.003600676e-07
-5.231651456e-07
3.872723898e-06
-2.426851624e-08
-4.715389596e-07
3.957307691e-06
3.678397208e-08
-3.704725557e-07
3.848274561e-06
6.170742847e-08
-1.626061783e-07
3.50213746e-06
3.795152106e-08
3.01810634e-08
3.149689969e-06
-1.922199708e-08
1.50058075e-07
2.868133987e-06
-8.672158239e-08
1.619724397e-07
2.657880475e-06
-3.446808465e-07
2.218290471e-08
2.777287371e-06
-1.777876418e-07
3.189507485e-06
-8.521014475e-07
5.463907537e-07
-1.652235567e-07
3.668238549e-06
-1.117320539e-06
3.875005104e-07
-4.358612056e-07
3.048406797e-06
3.977731658e-07
-5.878244867e-07
2.710673753e-06
3.522831874e-07
-6.491982261e-07
2.512510207e-06
2.122810573e-07
-6.151456053e-07
2.462452203e-06
-8.908625816e-08
-5.753158887e-07
2.492414651e-06
-2.956988793e-07
-5.766017968e-07
2.41178712e-06
-3.275133186e-07
-6.578105384e-07
2.225450238e-06
9.23355551e-09
-7.457809885e-07
2.111056356e-06
6.318163838e-08
-5.34725655e-07
2.725488199e-06
-1.333338808e-08
-4.196693428e-07
3.454992603e-06
-6.76193157e-08
-3.670778514e-07
4.031837815e-06
6.906662131e-08
-3.123451316e-07
4.329407085e-06
2.349503355e-07
-2.900047834e-07
4.360231423e-06
2.30598348e-07
-2.265825216e-07
3.946266847e-06
1.293862451e-07
-1.093013619e-07
3.326995671e-06
-3.425439414e-08
-4.882188526e-08
2.928717554e-06
-2.158937975e-07
-1.686445927e-08
2.625748077e-06
-5.020273486e-07
-4.528673503e-08
2.640346929e-06
-3.278626438e-08
2.957240408e-06
-1.026427584e-06
3.082816732e-07
-1.780311774e-07
3.442788144e-06
-6.505541114e-07
2.477660515e-07
-3.564692013e-07
2.900094415e-06
3.538053099e-07
-4.318640702e-07
2.58802016e-06
3.922854748e-07
-4.905891997e-07
2.355628638e-06
2.51636663e-07
-4.842970101e-07
2.289198051e-06
-9.68036936e-08
-4.715297133e-07
2.348745049e-06
-3.784348067e-07
-4.46307254e-07
2.249591107e-06
-3.979300129e-07
-4.749034235e-07
1.992396012e-06
9.623120107e-08
-5.268656721e-07
1.681653134e-06
1.491341681e-07
-2.18165265e-07
2.353010504e-06
2.080743816e-08
-1.031860726e-07
2.985402155e-06
-2.119295013e-08
-4.570047967e-08
3.504587975e-06
9.459549213e-08
-1.684662612e-08
3.926081888e-06
3.082426961e-07
-2.784680743e-08
4.161197059e-06
3.492488682e-07
-8.885473184e-08
4.007432382e-06
1.886812225e-07
-1.056983343e-07
3.508224469e-06
-2.736361498e-10
-1.049344482e-07
3.05694788e-06
-2.418254598e-07
-9.987582238e-08
2.752494532e-06
-6.112501746e-07
-9.942701843e-08
2.836117148e-06
1.472790975e-07
3.257214695e-06
-1.506466729e-06
1.929197518e-07
4.419044191e-09
3.20054617e-06
-5.151330186e-07
1.694044706e-07
5.77102799e-08
2.585273253e-06
3.068153062e-07
8.483635807e-08
2.324112249e-06
3.996742013e-07
4.461569311e-08
2.116442214e-06
2.601996699e-07
3.436941378e-09
2.039439237e-06
-8.907879867e-08
-4.972790736e-08
2.102328897e-06
-4.474987493e-07
-3.550134272e-08
2.010341739e-06
-4.541380346e-07
9.373409346e-08
1.548035456e-06
4.112094472e-07
3.590222487e-07
4.638198572e-07
3.079880432e-07
2.853914043e-07
1.875433927e-06
9.751294535e-08
3.531027819e-07
2.281150372e-06
1.693209209e-08
4.410959806e-07
2.547920144e-06
8.866974476e-08
4.483429864e-07
2.954404058e-06
2.849046467e-07
3.711887099e-07
3.334597618e-06
3.590618213e-07
2.041382049e-07
3.598698921e-06
2.044966022e-07
6.749827085e-08
3.454887221e-06
2.155695328e-08
3.426994118e-08
3.033076139e-06
-1.648926109e-07
5.948498717e-08
2.625191263e-06
-2.798724561e-07
8.537576073e-08
2.445146282e-06
2.420020941e-08
3.349515128e-06
-1.047706844e-06
2.381816643e-07
8.825087073e-08
3.421109325e-06
-7.530107884e-07
1.717427669e-07
2.444441622e-07
2.819652952e-06
2.606835511e-07
2.851221666e-07
2.584173461e-06
3.229330133e-07
2.506413392e-07
2.490058409e-06
1.859196446e-07
1.858574145e-07
2.467386793e-06
-8.378196212e-08
1.712930823e-07
2.404118023e-06
-3.07642539e-07
2.059863892e-07
2.143009247e-06
-2.069598341e-07
3.418121041e-07
1.708004468e-06
3.74832298e-07
5.046069639e-07
1.330548099e-06
3.894496769e-07
4.930242383e-07
1.804507705e-06
2.287979872e-07
5.312359145e-07
2.144970517e-06
8.067793887e-08
5.640862479e-07
2.458896357e-06
6.625094757e-08
5.371927231e-07
2.868745403e-06
1.416496629e-07
4.308252723e-07
3.275604343e-06
2.219384498e-07
2.812677055e-07
3.583728439e-06
1.680849433e-07
1.343275377e-07
3.555037031e-06
5.937778337e-08
7.197548526e-08
3.22955556e-06
-1.156117455e-07
1.839482337e-08
2.889028974e-06
-3.018568128e-07
-5.620346954e-08
2.735746775e-06
-2.885409425e-07
3.32080693e-06
-1.0587442e-06
3.252175777e-07
-3.113993893e-08
3.608282451e-06
-1.054024514e-06
1.948418074e-07
2.416805691e-07
3.000353829e-06
2.198919399e-07
2.789665263e-07
2.807150199e-06
2.544270186e-07
2.806206177e-07
2.769442432e-06
1.546537488e-07
2.2914951e-07
2.72894908e-06
-6.502179412e-08
2.491960621e-07
2.60986942e-06
-1.896807844e-07
3.324073858e-07
2.293793031e-06
-7.384663913e-08
4.661254897e-07
1.856185716e-06
4.149487469e-07
5.702701684e-07
1.476776474e-06
4.547972429e-07
5.36249637e-07
1.851190818e-06
3.033332871e-07
5.113977581e-07
2.132287795e-06
1.081573424e-07
4.633105507e-07
2.446737483e-06
1.198921884e-08
3.989651858e-07
2.809325355e-06
2.724013707e-08
2.946544685e-07
3.185759066e-06
8.585401013e-08
2.090650501e-07
3.402462516e-06
1.046549202e-07
1.238332319e-07
3.369913938e-06
4.484803564e-09
3.436637368e-08
3.184841822e-06
-1.951336039e-07
-9.144956914e-08
2.988143924e-06
-4.578030148e-07
-2.904927321e-07
2.910498683e-06
-6.212333757e-07
3.440601936e-06
-1.343952298e-06
4.63403006e-07
-1.91548328e-07
3.656884512e-06
-1.456633237e-06
2.517886065e-07
9.333005202e-08
3.064669066e-06
2.245208764e-07
1.309446013e-07
2.932647935e-06
2.135975875e-07
1.539462369e-07
2.953445953e-06
1.624971751e-07
1.579541731e-07
2.920960424e-06
3.478005673e-09
1.974050511e-07
2.790556943e-06
-7.278632436e-08
2.899300224e-07
2.522122856e-06
4.621927878e-09
4.2494262e-07
2.175698304e-06
4.035123659e-07
5.531220725e-07
1.77472067e-06
4.344253532e-07
4.802465899e-07
2.058775459e-06
2.751755569e-07
3.984323985e-07
2.240606677e-06
7.871147459e-08
2.993269563e-07
2.481136955e-06
-5.635921314e-08
2.149865023e-07
2.779015526e-06
-3.790544273e-08
1.484478219e-07
3.074362437e-06
6.402186397e-09
7.857303874e-08
3.21402715e-06
1.148049845e-08
2.48312618e-09
3.127293092e-06
-1.184696367e-07
-9.828171332e-08
3.053467886e-06
-3.805314927e-07
-2.594544484e-07
2.993795213e-06
-7.025713762e-07
-5.898334211e-07
3.103879476e-06
-1.050626092e-06
3.616746805e-06
-1.549375337e-06
5.429403948e-07
-3.852468307e-07
3.744669071e-06
-1.662720061e-06
2.922502858e-07
-1.228396631e-07
3.203723597e-06
2.57321144e-07
-5.060470049e-08
3.087807016e-06
2.33886202e-07
-2.143194778e-08
3.10458599e-06
2.033189383e-07
5.162531106e-09
3.102574772e-06
9.166334759e-08
6.348971854e-08
3.002220913e-06
5.339498111e-08
1.673689098e-07
2.76376505e-06
1.108424822e-07
2.532096586e-07
2.470432406e-06
3.464700966e-07
3.330275833e-07
2.159152504e-06
3.416721206e-07
2.503153231e-07
2.295780374e-06
1.749305399e-07
1.83971655e-07
2.398504858e-06
3.464505e-09
1.310215614e-07
2.51686562e-06
-1.127262616e-07
8.304987532e-08
2.647089571e-06
-1.039607824e-07
6.247919895e-08
2.847024977e-06
-7.209631753e-08
2.175900137e-08
2.945032431e-06
-1.069836781e-07
-4.143090891e-08
2.864289181e-06
-2.811087898e-07
-1.380200177e-07
2.913720489e-06
-6.81865547e-07
-2.941068521e-07
3.023993188e-06
-1.075575159e-06
-6.410045838e-07
3.136795055e-06
-1.145134984e-06
3.264989259e-06
-1.598411327e-06
6.179217166e-07
-5.561153531e-07
3.966351079e-06
-1.765957792e-06
3.489345591e-07
-3.36573889e-07
3.450333436e-06
3.049806801e-07
-2.671878691e-07
3.34951424e-06
2.820743838e-07
-2.221660057e-07
3.371113241e-06
2.696263675e-07
-1.527329609e-07
3.349965546e-06
2.004031747e-07
-9.696898358e-08
3.191122095e-06
1.395625695e-07
-2.17726989e-08
2.93587764e-06
1.784502244e-07
2.02380348e-08
2.658383571e-06
2.780689042e-07
5.209033635e-08
2.424936045e-06
2.618856051e-07
-8.518328318e-09
2.452293277e-06
1.14855192e-07
-4.578755284e-08
2.498071907e-06
-4.711814314e-08
-7.165060616e-08
2.546586669e-06
-1.411129804e-07
-8.611227711e-08
2.549944596e-06
-1.515618273e-07
-9.257748581e-08
2.677420792e-06
-1.515918973e-07
-1.346937935e-07
2.747804189e-06
-2.047790019e-07
-1.785969351e-07
2.706757594e-06
-4.506550087e-07
-2.09803917e-07
2.853770708e-06
-9.952565857e-07
-2.071834365e-07
3.03295638e-06
-1.509039255e-06
-1.916144493e-07
2.880035531e-06
-1.647068219e-07
1.901700238e-06
-1.571458932e-06
6.457995949e-07
-8.645484865e-07
4.3945892e-06
-1.706578427e-06
3.990787095e-07
-6.490837833e-07
3.915282161e-06
3.741218657e-07
-5.49101059e-07
3.780641454e-06
3.68636326e-07
-4.774923553e-07
3.710261221e-06
3.394168143e-07
-3.970035559e-07
3.616942816e-06
2.863344561e-07
-3.06754805e-07
3.360822127e-06
2.128557748e-07
-2.545020773e-07
3.020841173e-06
2.138833375e-07
-2.733322249e-07
2.774839113e-06
2.255646922e-07
-2.9227092e-07
2.639870661e-06
2.080502639e-07
-3.009944607e-07
2.616139746e-06
7.690912429e-08
-2.781986254e-07
2.646354428e-06
-6.407749794e-08
-2.48616183e-07
2.603741496e-06
-1.573619529e-07
-2.773073021e-07
2.514172133e-06
-2.005289311e-07
-3.274796811e-07
2.600712419e-06
-1.872183957e-07
-3.788123602e-07
2.656260278e-06
-2.019952494e-07
-4.483492158e-07
2.689196453e-06
-3.079643567e-07
-5.257106491e-07
2.915442375e-06
-6.503436648e-07
-5.658116321e-07
3.255141148e-06
-1.120897476e-06
-5.334506187e-07
3.600323012e-06
-4.866104847e-07
3.640484148e-06
-1.720946301e-06
7.985306186e-07
5.176087824e-06
-1.686650933e-06
-1.669761468e-06
6.227219633e-07
4.652644487e-06
-1.596803901e-06
5.878584805e-07
4.451707221e-06
-1.507454632e-06
5.759596533e-07
4.212456689e-06
-1.33409972e-06
4.902462762e-07
3.950153449e-06
-1.139461631e-06
3.532240755e-07
3.629501634e-06
-9.275494062e-07
2.285694019e-07
3.286954735e-06
-7.575152069e-07
2.129195486e-07
3.129098181e-06
-7.784928492e-07
1.962057206e-07
3.065043007e-06
-7.867702401e-07
2.079636959e-07
3.043083471e-06
-7.176749631e-07
1.035898413e-07
3.00844403e-06
-6.306290357e-07
-8.293115291e-08
2.888531754e-06
-5.774547009e-07
-2.116569436e-07
2.741001028e-06
-6.571961208e-07
-2.533417009e-07
2.796325644e-06
-8.549607573e-07
-2.799730791e-07
2.882095241e-06
-1.09936159e-06
-3.374348727e-07
2.979772327e-06
-1.378149221e-06
-4.357011546e-07
3.250594455e-06
-1.678818852e-06
-6.784292427e-07
3.566352811e-06
-1.829982014e-06
-1.0917336e-06
4.07326585e-06
-1.857915026e-06
4.507796623e-06
-1.943517058e-06
-1.816173655e-06
1.598381473e-07
-2.660865068e-07
2.114803404e-06
9.946334098e-08
4.941817469e-07
1.429671481e-07
-5.561769017e-07
1.60013456e-06
9.227475636e-07
-3.097994607e-08
-4.246664044e-07
1.280150129e-06
8.950464205e-07
-1.692095494e-07
-3.663754549e-07
9.907094985e-07
7.050978534e-07
-2.406770682e-07
-5.129081665e-07
7.45404297e-07
7.223083174e-07
-3.081754849e-07
-7.222985064e-07
6.562221038e-07
7.649257955e-07
-2.017288392e-07
-8.85829876e-07
5.374569465e-07
7.650799998e-07
-7.336686513e-08
-1.024396155e-06
6.304330307e-07
8.127573206e-07
2.08852001e-07
-1.093711914e-06
8.023305044e-07
8.392400345e-07
3.253273797e-07
-9.584641242e-07
1.20729326e-06
7.141675583e-07
2.460737014e-07
-6.856070161e-07
1.61677978e-06
5.49341415e-07
4.305545252e-08
-3.953583666e-07
1.858511626e-06
3.54621772e-07
-3.442286922e-08
-1.532465517e-07
1.812264115e-06
1.667011437e-07
-7.836699829e-08
-7.717131289e-08
1.793311317e-06
1.126411232e-07
-1.108150669e-07
-1.421827087e-07
1.847859723e-06
2.365315738e-07
-1.873759758e-07
-4.116093866e-07
2.107121185e-06
4.336678674e-07
-3.260689741e-08
-7.307619929e-07
2.007240463e-06
6.690589619e-07
1.46500833e-07
-7.904848031e-07
2.105471007e-06
6.894361812e-07
7.574035787e-08
-6.003704862e-07
2.309839451e-06
6.302931269e-07
-2.077747101e-07
2.423660542e-06
2.647300503e-07
2.017443128e-07
-1.610524917e-07
-1.153624515e-08
1.798655081e-06
3.434842038e-07
9.374617893e-08
-1.534445088e-07
4.652334702e-07
1.308950328e-07
-1.760881715e-08
2.819534722e-07
-2.191002384e-07
-2.671190952e-07
7.530618264e-07
-4.214345244e-07
-4.121409866e-07
4.718172037e-07
-5.23107954e-07
-6.085500904e-07
2.172047639e-07
-4.098373344e-07
-7.823612156e-07
-4.718491045e-08
-1.925344465e-07
-8.88018164e-07
-1.224384442e-07
3.031618595e-07
-9.779222719e-07
-1.238853971e-07
6.107513091e-07
-8.933659409e-07
3.408713107e-07
5.891773438e-07
-6.524130835e-07
9.807078196e-07
3.306291274e-07
-4.043493349e-07
1.483630423e-06
5.323298593e-08
-2.276689731e-07
1.685698457e-06
-2.032746976e-07
-1.990888491e-07
1.759566079e-06
-4.114808717e-07
-3.694746455e-07
1.80030369e-06
-4.055122565e-07
-7.8762776e-07
1.694389246e-06
1.266764923e-07
-1.223335165e-06
1.147688726e-06
5.798876722e-07
-1.278658447e-06
1.311390026e-06
5.451183113e-07
-1.021447695e-06
1.923438293e-06
-5.193546017e-07
2.263755427e-06
7.741114171e-07
-3.884665706e-08
3.704928931e-07
1.743763292e-06
2.307315017e-07
2.970347966e-07
5.216322347e-07
1.520034545e-07
-7.925894732e-08
2.28029807e-07
9.536046285e-07
-4.069590573e-07
5.208093966e-08
4.902361907e-07
-6.505568768e-07
-5.795163229e-08
1.282104156e-07
-7.428810221e-07
-1.459384845e-07
-3.520943349e-07
-5.539040307e-07
-1.95169733e-07
-8.449020764e-07
-3.03442059e-07
-2.381056987e-07
-9.226593027e-07
3.732058851e-07
-3.29346262e-07
-1.119082897e-06
8.808135144e-07
-3.177345656e-07
-7.088768356e-07
8.83704569e-07
-2.890940813e-07
2.198073112e-07
5.505491925e-07
-2.332873433e-07
1.021972708e-06
7.315314355e-08
-2.383550053e-07
1.481439265e-06
-4.402153546e-07
-2.892106872e-07
1.682451106e-06
-8.572827192e-07
-5.199127894e-07
1.619762756e-06
-8.160424412e-07
-8.689244936e-07
1.024312632e-06
1.061051125e-07
-1.197660758e-06
-1.190458265e-07
8.4944095e-07
-1.26130403e-06
1.271827076e-07
7.868644475e-07
-1.032228651e-06
1.272652151e-06
-5.506650666e-07
1.945607745e-06
8.503788771e-07
-4.211112953e-08
2.723025167e-07
2.315690328e-06
2.381180213e-07
8.286650822e-08
4.66326001e-07
1.277750011e-06
-2.23985007e-07
3.392459078e-07
1.038628396e-06
-4.810366089e-07
3.648194083e-07
4.706376538e-07
-6.975804311e-07
4.147589996e-07
-2.991246538e-08
-7.577197536e-07
4.792196203e-07
-6.583888937e-07
-5.709044571e-07
5.239224044e-07
-1.024623678e-06
-3.616126583e-07
5.413457046e-07
-1.021214124e-06
3.522462856e-07
3.993279017e-07
-1.410413541e-06
9.140072451e-07
5.329244611e-07
-1.28150335e-06
9.532394548e-07
3.6586799e-07
-3.234096393e-07
5.46712945e-07
1.175577013e-07
6.708987558e-07
-1.552231965e-08
-8.678435282e-08
1.219616839e-06
-7.116068786e-07
-2.714679041e-07
1.563224156e-06
-1.189439732e-06
-4.998460552e-07
1.365460461e-06
-1.062347177e-06
-8.005891856e-07
5.497440313e-07
1.464618932e-07
-1.079949084e-06
-7.601091932e-07
1.061158381e-06
-1.29323905e-06
-2.80370714e-07
9.857442242e-07
-9.462664333e-07
9.8513731e-07
-4.418827394e-07
1.775870592e-06
9.870831532e-07
3.56703171e-08
9.772876824e-08
2.456706429e-06
1.355022645e-07
5.131284918e-08
2.709057331e-07
1.64381391e-06
-1.44496364e-07
2.99341307e-07
1.200976557e-06
-3.596335385e-07
4.127946055e-07
8.133056587e-07
-5.743158663e-07
5.605223475e-07
4.845420714e-07
-6.915775207e-07
7.397507574e-07
3.916760858e-08
-5.571357596e-07
9.159466057e-07
-4.821724338e-07
-4.606862642e-07
1.03675436e-06
-6.640271701e-07
4.563345934e-07
1.230975421e-06
-1.920534072e-06
7.693384192e-07
1.097303098e-06
-9.74431193e-07
7.11769028e-07
8.232418517e-07
-2.018072351e-07
3.205912871e-07
4.653717012e-07
5.380993133e-07
-2.598451108e-07
2.024618476e-07
9.450020898e-07
-1.011267748e-06
-3.691421521e-08
1.284940687e-06
-1.53438952e-06
-2.312533398e-07
1.005992101e-06
-1.362021163e-06
-5.378231367e-07
1.299092774e-07
1.764563492e-07
-1.183106124e-06
-1.146449852e-06
1.459477068e-06
-1.808544599e-06
-3.879234144e-07
1.300271984e-06
-8.770994609e-07
8.976008928e-07
-2.889880626e-07
1.718427762e-06
1.233172074e-06
1.998959003e-07
-9.342722776e-08
2.398599836e-06
-8.937429718e-08
1.114613167e-07
-7.282788328e-08
1.790332022e-06
-1.814920099e-08
-1.894394077e-08
1.337124015e-06
-1.84749201e-07
7.565745928e-08
1.057571242e-06
-3.691610856e-07
2.460753587e-07
8.857130981e-07
-4.916569277e-07
4.551859742e-07
6.345052968e-07
-4.253656149e-07
7.006003921e-07
3.064582192e-07
-3.003556299e-07
8.44354208e-07
1.008266031e-07
3.149933501e-07
1.054221533e-06
-6.085407264e-07
4.922329634e-07
8.975782492e-07
-2.004069435e-08
3.359164015e-07
6.451118321e-07
4.514484649e-07
-4.447767912e-08
4.3590637e-07
7.292286046e-07
-7.325206747e-07
3.278005117e-07
9.384616295e-07
-1.582052856e-06
4.149467182e-07
8.463756276e-07
-2.259555327e-06
6.793641772e-07
5.050675419e-08
-2.363542995e-06
1.188891512e-06
-1.714295883e-06
1.128775341e-07
1.796405667e-06
-6.541719247e-06
2.507715318e-06
7.499370711e-07
-5.268193945e-06
1.783679377e-06
4.677690175e-07
-1.498103624e-07
3.736213989e-07
1.214923641e-06
1.472876401e-06
2.885646301e-07
-2.75369406e-07
2.152261939e-06
-2.613147486e-07
1.788643159e-07
-3.322518061e-07
1.557728905e-06
7.545916073e-08
-3.087613102e-07
1.11338536e-06
-1.026398699e-08
-2.107447598e-07
8.034255499e-07
-1.654206763e-07
-9.743439752e-08
7.422385714e-07
-2.564477229e-07
5.68308817e-08
6.640852784e-07
-2.766535462e-07
2.076144015e-07
6.05872471e-07
-1.563337225e-07
2.814081574e-07
5.27218687e-07
1.721236105e-07
3.801369841e-07
3.251282792e-07
2.273221606e-07
3.565772325e-07
5.673061167e-07
1.219755921e-07
3.07415051e-07
6.903613183e-07
-1.385342382e-07
3.052934946e-07
7.464459489e-07
-6.071420971e-07
2.981933535e-07
9.17647772e-07
-1.258852371e-06
5.321980087e-07
9.822012705e-07
-1.733899392e-06
9.560329434e-07
5.276216638e-07
-1.678986166e-06
1.585005979e-06
-4.117166259e-07
-7.542247104e-07
2.233814759e-06
-1.613129526e-06
1.914550357e-06
2.788789856e-06
-5.145659577e-06
1.506611624e-06
1.526209291e-06
-2.602740424e-07
7.465569152e-07
1.187361675e-06
1.295771619e-06
4.424160854e-07
-3.629643024e-07
1.867278263e-06
-5.123838016e-07
2.520372019e-07
-4.623520408e-07
1.349574147e-06
1.815467864e-07
-4.885436053e-07
8.906796319e-07
7.931170305e-08
-4.192436418e-07
6.441904677e-07
-5.128695203e-08
-3.224265686e-07
5.286260437e-07
-1.337314382e-07
-2.443780143e-07
4.912600061e-07
-1.941033589e-07
-2.368699553e-07
5.154144276e-07
-9.139229698e-08
-3.602241282e-07
5.15461201e-07
1.509100692e-07
-4.951530579e-07
5.082835333e-07
1.766963087e-07
-3.464000479e-07
6.807881851e-07
1.225505725e-07
-1.28827865e-07
7.298208621e-07
-1.025986099e-07
1.260801556e-08
8.629952883e-07
-3.613778313e-07
1.008902819e-07
9.156396914e-07
-8.315385748e-07
3.226724577e-07
1.109291141e-06
-1.107998643e-06
7.63785334e-07
9.361207652e-07
-1.045871538e-06
1.376998921e-06
4.638291175e-07
-4.177089454e-07
1.932514429e-06
-9.675459883e-08
9.383154721e-07
2.211153135e-06
-7.895809716e-07
9.601696252e-07
1.347855319e-06
6.947468439e-07
5.168246497e-07
1.462154402e-06
9.820268623e-07
5.036882106e-07
-5.284994107e-07
1.71463015e-06
-7.024184826e-07
2.938577966e-07
-6.821729208e-07
1.195990199e-06
2.743941326e-07
-7.764044806e-07
7.788279244e-07
1.704119439e-07
-7.847310298e-07
6.074361322e-07
8.269832444e-09
-6.803673443e-07
5.555704221e-07
-1.455254742e-07
-6.183130633e-07
5.327325066e-07
-3.308704731e-07
-7.342910974e-07
5.695630407e-07
-2.258772279e-07
-9.450770077e-07
4.077105243e-07
2.259015568e-07
-1.179373642e-06
2.135632754e-07
3.731979799e-07
-9.133076379e-07
5.827683269e-07
2.600357363e-07
-5.762298717e-07
9.273412544e-07
7.935602612e-10
-3.250280723e-07
1.162877348e-06
-1.414521393e-07
-1.686991962e-07
1.092229343e-06
-3.973901751e-07
1.001232245e-08
1.153827021e-06
-5.289304715e-07
3.209219019e-07
1.161161774e-06
-5.239461902e-07
7.295847102e-07
1.086095885e-06
-2.024728763e-07
1.106969824e-06
8.941336325e-07
3.500796711e-07
1.219848876e-06