/*--------------------------------*- C++ -*----------------------------------*\
  =========                 |
  \\      /  F ield         | OpenFOAM: The Open Source CFD Toolbox
   \\    /   O peration     | Website:  https://openfoam.org
    \\  /    A nd           | Version:  7
     \\/     M anipulation  |
\*---------------------------------------------------------------------------*/
FoamFile
{
    version     2.0;
    format      ascii;
    class       volScalarField;
    location    "60";
    object      T;
}
// * * * * * * * * * * * * * * * * * * * * * * * * * * * * * * * * * * * * * //

dimensions      [0 0 0 1 0 0 0];

internalField   nonuniform List<scalar> 
16320
(
1291.495008
1297.676822
1298.263901
1299.903459
1295.151272
1286.83707
1279.179901
1269.208404
1266.853386
1264.008727
1268.717064
1273.507935
1280.816113
1282.24561
1284.663387
1287.959771
1291.235957
1299.463206
1299.688821
1300.925806
1294.510859
1297.857096
1300.583509
1299.914209
1297.305835
1291.535011
1287.109745
1278.228087
1275.04547
1271.960297
1272.146599
1276.938627
1279.926797
1284.704227
1284.872747
1290.141637
1291.930833
1296.432942
1300.067367
1299.685226
1299.537934
1299.281904
1302.422826
1299.190195
1296.464227
1288.553316
1284.195252
1279.547436
1278.804483
1273.290277
1270.633067
1271.170222
1273.757291
1276.981263
1280.728016
1287.362045
1294.425767
1297.42212
1304.066161
1303.237902
1291.420327
1292.859021
1293.44643
1291.783169
1290.364719
1282.454483
1281.045895
1278.758997
1277.680965
1273.931042
1275.097977
1274.26591
1278.817849
1280.672764
1285.76796
1287.806141
1290.62296
1294.682823
1300.327674
1302.119421
1284.295097
1290.689229
1289.841622
1288.458327
1290.840687
1283.499219
1281.494344
1275.775154
1271.715262
1269.947667
1272.051807
1275.503123
1279.489492
1284.736952
1287.0692
1291.146602
1292.247963
1297.734707
1298.28784
1293.975732
1282.222048
1284.814075
1287.062521
1284.311892
1286.727503
1280.767223
1279.042214
1276.726553
1271.497624
1272.766079
1272.781236
1278.271319
1279.283925
1281.542175
1284.289179
1286.848468
1290.487611
1295.501945
1298.018405
1288.47252
1273.496664
1278.202784
1279.769807
1279.705302
1280.08111
1279.141007
1277.329085
1275.961664
1271.154529
1272.694169
1272.43682
1276.989947
1282.499577
1282.76391
1287.718899
1287.388947
1293.055277
1292.911897
1293.74115
1284.487621
1275.377477
1281.386796
1280.434352
1281.470516
1279.583154
1281.836792
1278.550297
1276.472263
1268.038572
1266.502713
1266.857017
1268.948357
1275.037234
1275.63377
1282.236787
1284.50221
1291.007649
1291.38706
1293.051647
1281.075876
1273.712999
1276.391571
1276.969848
1274.715636
1273.793008
1275.593752
1274.14099
1272.421716
1268.224733
1266.501328
1264.533626
1263.388961
1270.364113
1270.821771
1278.930319
1282.445624
1288.531119
1286.833927
1286.854531
1276.940682
1275.940432
1275.595909
1278.876232
1274.402885
1273.795235
1272.503991
1273.4814
1269.131728
1265.780508
1258.822074
1253.085446
1251.622119
1258.68299
1262.687317
1269.235976
1278.088239
1283.571956
1285.094252
1283.123892
1273.076578
1274.41407
1273.145906
1277.176285
1273.942746
1274.004308
1268.638245
1269.892107
1266.504323
1265.195038
1258.438007
1254.929049
1253.7998
1260.696224
1265.15503
1264.628233
1269.859396
1278.248301
1282.141969
1281.219769
1272.31963
1278.590411
1278.667749
1283.821282
1279.755426
1274.711491
1267.95463
1266.246413
1264.436563
1264.888617
1263.526678
1260.439971
1261.370278
1262.385386
1267.310553
1267.978775
1269.023761
1279.300746
1281.49747
1280.177911
1272.368611
1280.025785
1282.542716
1286.87179
1285.046465
1278.004368
1273.15367
1269.592255
1270.840861
1269.187995
1268.130625
1266.158109
1265.768097
1264.559955
1263.823685
1264.726192
1266.537247
1277.066355
1282.412546
1283.862293
1272.258784
1286.872727
1288.662227
1286.372438
1284.735149
1280.326103
1281.202744
1279.67516
1279.71281
1280.616017
1278.446301
1277.580417
1274.850805
1274.623742
1270.722799
1272.577411
1274.207723
1282.091371
1284.53318
1284.507583
1276.286277
1288.486775
1293.952068
1289.374279
1287.938912
1283.792568
1282.065186
1284.80377
1283.588398
1284.289435
1281.947892
1280.063228
1276.033858
1274.589803
1273.514996
1275.201076
1280.689488
1284.916206
1289.671924
1289.232547
1285.716453
1292.321356
1293.621089
1290.758502
1286.547178
1286.045458
1281.680448
1283.200595
1282.449731
1285.439518
1284.597985
1280.788744
1278.257653
1277.00682
1280.929873
1279.993103
1281.372446
1285.259612
1289.61796
1292.776859
1291.915194
1296.389121
1296.2996
1295.597731
1286.960349
1284.546758
1281.143976
1283.980956
1282.197924
1280.323086
1279.93639
1277.27009
1279.256952
1279.770385
1284.919253
1287.291842
1287.856891
1293.295133
1295.281875
1300.515244
1301.140131
1303.671812
1299.756831
1296.066026
1287.893113
1286.848165
1282.727866
1281.528313
1282.684146
1278.515641
1278.332097
1274.851497
1275.836947
1278.301651
1283.0471
1285.854353
1288.771344
1294.900674
1298.669295
1304.543649
1299.859396
1302.367241
1301.820678
1299.698705
1290.815838
1286.395639
1285.292536
1280.529423
1278.753218
1272.758684
1272.404767
1271.806841
1276.205467
1277.932219
1282.518448
1290.410132
1294.897112
1301.505592
1301.404294
1302.909701
1296.946411
1304.235997
1302.570345
1297.173297
1291.357121
1285.382605
1281.832058
1278.018997
1278.150944
1270.746183
1269.217474
1267.753193
1269.844482
1274.994157
1282.834724
1287.732188
1292.0489
1299.348761
1300.937116
1303.019796
1294.222215
1406.877634
1410.048797
1414.812339
1419.75695
1423.402911
1412.851096
1407.389078
1394.584862
1393.414008
1384.541235
1385.038389
1387.021245
1395.584124
1401.285943
1411.416809
1416.140333
1412.243413
1416.310377
1417.009736
1418.795591
1409.782548
1410.439591
1416.992931
1418.962194
1428.189886
1425.804092
1420.864113
1413.155689
1415.034578
1403.976508
1398.208832
1397.773081
1400.266695
1404.290583
1408.148129
1410.149885
1407.086928
1413.020121
1410.583956
1410.117868
1411.72398
1416.861931
1421.090067
1426.742735
1428.636652
1423.15317
1418.867493
1413.759481
1423.4521
1414.469446
1399.195915
1395.530836
1392.145829
1395.134512
1397.585554
1407.51561
1414.38394
1416.105394
1413.811539
1408.994273
1400.961021
1411.566322
1414.493538
1424.59765
1421.384904
1407.750343
1408.069017
1410.356095
1415.525835
1411.56894
1404.925222
1397.489339
1396.133493
1394.014122
1400.318056
1405.744023
1413.675454
1411.258626
1413.870127
1414.416646
1396.733389
1404.769117
1411.348295
1416.756931
1415.12264
1408.766406
1405.506417
1398.670924
1400.373181
1396.844093
1404.411365
1409.045893
1407.142992
1406.951851
1409.663642
1413.769839
1415.652795
1415.318687
1413.089363
1414.123184
1393.088967
1393.325453
1398.58569
1398.976421
1401.505495
1401.518685
1406.023333
1400.205798
1392.442451
1391.757576
1396.200604
1404.018963
1401.695669
1407.530481
1405.167967
1407.573523
1383.241446
1414.939346
1417.952913
1415.556935
1390.524265
1395.10743
1396.216101
1399.310119
1398.96861
1404.705627
1404.655874
1406.206629
1398.61671
1396.517726
1405.69528
1409.868767
1409.876412
1410.989694
1410.249088
1406.651408
1411.305382
1414.766418
1417.276159
1408.541341
1400.988915
1403.667257
1406.543914
1404.867544
1407.032495
1411.288455
1407.300134
1404.002853
1391.198895
1387.752229
1398.321427
1399.041525
1404.203016
1399.516285
1410.202379
1413.277392
1421.253471
1420.363697
1422.53254
1413.180183
1399.874125
1399.870306
1405.640221
1397.952589
1402.581531
1407.372319
1399.770405
1404.949292
1405.227595
1395.863654
1391.639492
1393.453163
1398.109428
1391.627162
1401.143317
1403.031564
1411.784387
1410.236606
1420.097119
1412.026648
1396.810427
1400.582148
1408.086602
1403.334035
1404.350391
1402.210484
1398.218889
1398.918512
1406.864501
1392.811006
1375.537378
1374.691761
1387.95078
1388.635402
1395.966416
1403.664386
1411.32943
1414.547281
1419.390636
1405.729748
1387.641413
1393.532368
1403.991303
1399.623851
1399.661722
1388.898021
1394.051668
1396.897453
1399.570519
1386.535185
1378.47284
1374.105117
1381.099875
1376.889061
1381.094806
1397.740359
1406.223414
1418.174094
1415.622724
1401.882652
1398.410727
1404.367547
1407.572791
1411.138935
1409.815539
1393.262037
1392.790894
1389.921898
1397.318379
1397.967988
1395.200384
1393.388145
1392.222951
1386.831296
1385.164713
1395.379422
1408.345237
1415.78171
1401.59272
1388.685527
1400.476033
1407.709251
1402.585799
1410.977645
1412.709694
1402.818882
1393.334861
1394.080601
1376.190007
1403.760175
1400.364276
1405.208185
1396.084677
1392.468233
1380.887785
1383.245777
1404.003886
1413.816213
1405.797963
1391.203568
1406.847646
1416.788743
1411.770462
1413.161287
1406.424026
1406.866554
1412.047515
1417.187429
1414.358472
1416.330992
1413.703912
1413.176029
1406.589828
1401.354972
1390.620362
1386.574829
1399.546242
1405.418943
1415.085929
1409.838999
1405.582718
1414.30039
1408.790543
1408.552079
1407.882825
1404.791906
1415.58471
1421.333667
1419.606385
1413.204968
1415.895253
1407.396661
1403.154888
1395.965404
1396.129401
1399.238329
1405.72743
1412.227588
1422.33482
1417.366879
1416.238167
1419.565893
1414.699495
1405.391978
1408.469176
1407.745025
1412.500857
1409.351294
1411.931013
1412.789333
1414.42484
1408.483109
1399.825877
1398.172887
1396.650936
1404.817225
1404.664576
1416.080196
1419.934689
1415.301814
1417.964267
1416.555932
1416.611922
1409.053359
1407.592768
1401.271473
1405.504558
1407.127054
1403.577926
1406.777886
1401.088605
1402.511628
1408.243322
1408.237775
1404.849759
1413.706892
1411.6627
1418.760605
1416.656976
1420.270064
1422.244229
1419.716157
1415.787791
1403.865615
1401.955456
1400.915834
1400.564052
1406.947581
1405.061202
1405.454778
1398.445711
1395.088766
1405.906055
1401.438252
1399.164817
1411.872027
1409.841148
1418.103052
1415.274465
1387.43375
1419.680932
1415.652672
1412.034788
1405.802324
1399.845658
1402.550172
1408.604097
1410.073744
1399.949994
1399.292336
1392.913339
1396.508532
1406.93648
1400.923535
1407.474453
1419.676277
1416.987269
1419.529786
1411.648036
1410.965113
1414.185093
1415.298879
1409.726617
1409.017639
1407.98427
1402.799061
1411.202035
1414.661779
1406.489352
1398.094572
1395.594335
1397.526763
1413.622936
1415.6289
1415.589053
1420.147464
1416.830762
1422.020356
1416.316633
1410.338354
964.3419979
914.5242037
920.8889187
985.6021335
991.8481516
949.8164535
930.2029418
896.6262679
897.6201927
888.6678226
884.1551082
881.1690451
904.2336235
922.5338719
956.9542611
942.360746
914.958585
929.540678
980.7548198
1012.552797
927.6518879
826.8572286
880.3625584
1002.31762
1029.795961
979.8077204
916.0114502
884.3237966
907.9285217
928.5750011
934.502997
935.0037077
938.2664781
947.2385197
969.3355548
946.7304544
890.102948
909.9007889
946.4396469
970.5699598
924.4072102
827.9905082
981.1042565
1034.050519
1010.724366
933.4665869
854.2211434
802.9692812
819.2941917
880.4555869
902.7646793
916.0809528
902.5813265
908.7016321
921.2716717
910.3701218
849.2707027
868.7658223
923.8417376
954.6570374
921.5480674
929.4132711
991.6846431
1019.590696
953.2816746
845.7296991
776.9914835
738.2585763
724.0329184
777.5504153
874.2066823
907.8052648
912.135986
903.5923079
902.31657
848.0940115
738.3915541
788.2819408
892.7017831
965.7709383
915.0140791
946.5140785
980.2776651
992.5142161
958.533162
891.9373826
820.198096
721.5999612
485.0916414
707.1215344
857.1030445
957.5181079
980.790304
957.1355654
902.0960596
806.3208206
658.3946569
731.893806
849.4767568
953.5761678
886.7348233
883.780096
899.6498998
909.8720868
918.1087716
917.400233
901.4571451
822.2441463
657.7728095
789.266006
894.1742129
976.8804321
967.5342688
890.8755062
708.8395302
473.5250109
298
298
661.4327107
877.1478173
910.0701794
914.0632691
909.6536813
918.8193003
927.418777
957.9260452
955.9870148
932.5397649
837.0522203
902.1013128
977.7752186
1024.31113
1014.462776
971.0243863
856.4848587
696.5291584
501.0998557
298
670.32502
866.8747033
962.0388667
965.5406258
972.1160092
955.1289618
972.458989
995.6110161
985.850583
970.9879158
923.4947435
928.6272291
976.2481848
977.7410872
990.042582
971.9905779
957.4005533
876.1191457
787.1784396
648.4560567
872.7211492
957.7355055
938.4635885
962.4875812
975.6109425
936.2112882
952.5183215
990.7758773
972.9559808
982.2434083
970.4502974
955.3063485
938.6357625
924.0500331
939.9639663
926.6271518
967.7810935
953.1455879
932.3382354
854.5322702
983.2659672
952.1219404
899.3027185
960.2239073
971.3327689
931.6211038
916.2900832
948.3759843
942.531695
920.1160318
893.158787
916.3931856
879.045606
855.8758478
903.3104501
905.7167415
954.7509969
992.5486962
1007.871716
991.9494769
1027.003087
860.1719987
844.9752098
924.4235953
936.6866362
915.0784251
920.7339622
900.0053362
892.3185521
828.1037862
741.3784393
853.9456979
875.7417561
859.3563023
870.2112045
840.2077018
860.6625578
955.7402344
1001.237586
1024.378825
907.1986749
692.1892144
923.819539
910.2085182
874.9766592
895.9651664
934.7558356
883.0782334
819.3958792
692.7450166
530.965214
853.5961403
916.854572
926.3304533
894.1786174
863.0699485
853.2870722
911.7834426
989.5518108
1019.318749
909.3913756
786.6212931
839.3376357
766.5780867
669.1869966
730.7745873
871.0525817
852.7681162
722.5089095
507.6278287
298
852.8240046
899.9700084
908.3109572
817.082444
800.6331621
771.8323261
796.9130478
928.4158312
949.0577516
829.5797469
886.7679344
925.7193007
928.5983908
867.9852959
891.845933
919.7288577
936.8921887
910.4759597
806.3163786
576.0884313
898.0521735
974.0370233
991.2710584
949.4214649
921.4685727
868.5879036
832.5085127
895.8979646
906.1020688
961.9049501
1009.900604
954.4759245
972.7398258
922.445476
930.5245647
948.8583205
958.6035883
969.478574
898.3294563
687.8338591
910.8789507
992.1404317
984.7255287
952.3426524
914.0167564
896.2210184
890.4965547
901.9231132
904.9776803
1017.188906
1018.066106
1011.117021
1021.346094
973.0852987
943.5167572
966.95055
978.8453078
987.0030994
929.859844
818.2431029
960.4972718
1016.136478
988.2599757
935.0459393
891.6438635
874.4669614
916.8571111
921.712189
969.2415641
1001.763378
867.0156906
1034.656319
1026.23395
994.655527
957.9027378
956.2911031
949.0819452
966.3580765
950.7676124
885.6629812
982.3364044
985.5213925
968.7402095
947.00198
895.1254869
887.6759704
951.3560306
958.8694277
970.8367127
869.4138115
621.7938163
1050.943008
1028.701875
977.7525304
918.0331845
912.0359853
924.0816765
943.4409234
964.6970789
945.0636893
991.5092141
955.0751535
919.6746267
930.1286525
884.2310863
876.7285286
951.4792263
951.3016012
911.0260404
726.9923258
298
1025.785052
985.4321512
935.699551
889.7820912
867.7697777
911.9398079
971.9143638
985.0326336
954.8772388
950.2932007
913.9384359
909.2171695
948.4197404
910.35942
938.8838726
1004.348703
995.7665718
1004.945296
912.1797369
706.9827327
976.6988889
957.9046652
900.5280006
880.0610969
864.3575154
896.0865784
973.6167292
986.1413187
968.4673297
927.0153181
924.3133157
931.2966433
990.427304
968.9186409
976.922926
1016.533418
1009.106082
1034.449017
1014.478639
888.9644806
713.5006735
589.1259615
561.8564088
679.6554233
642.2995299
593.6261617
547.6712072
501.3862539
502.5433517
536.3097617
569.9292129
592.3036188
608.8563237
619.9252276
653.6235264
642.7560424
542.4878199
559.6510083
647.9041286
684.3071428
662.8853337
298
298
700.4292448
644.3724953
545.0153407
442.2986382
393.871448
404.9890009
464.0985209
550.332621
609.5698996
642.0759758
659.3773094
684.6126165
618.2599933
437.082518
452.2512458
582.1525531
651.7438073
607.7609899
298
661.9688331
671.5620053
554.3973505
417.1942823
298
298
298
298
453.2824949
560.4824414
610.9678087
636.9901159
634.6068188
547.038225
298
298
518.8275257
627.4578192
668.1613384
611.8194605
689.7857475
615.3088761
460.4036517
298
298
298
298
298
391.4394391
536.0746737
620.2532747
642.7323653
597.0824684
483.5061545
298
298
486.340616
620.6195977
675.2870785
682.808914
687.8102504
643.0568789
552.4604628
433.8122013
299.6235422
298
298
298
400.3026368
584.7748882
693.8699488
666.2564564
565.6423696
436.3896293
298
298
461.7525474
607.056498
631.7853455
613.962597
612.0702201
613.7383946
595.4005247
562.7063929
496.8193248
408.3394783
298
352.5981017
505.4103755
669.1644198
693.7168757
525.6657457
343.7276266
298
298
298
298
494.107257
658.4174561
643.1038861
627.9557461
631.3996574
643.3233858
653.0870644
622.5384731
561.4580096
475.2799739
530.2927304
645.738946
742.3399289
733.7845709
633.2025568
459.9294842
298
298
298
298
501.6325781
678.6694964
683.7420806
667.3077142
644.6816296
669.8685077
694.4518258
688.2916983
658.5247759
630.1895166
645.2138535
693.9742982
697.1486274
716.3838689
697.8982283
615.3690306
486.9966175
404.1308661
298
481.336114
629.4215573
632.4717077
688.4329387
658.3197852
620.3443694
648.2869228
695.0943413
674.5526302
645.3954518
598.703298
598.9875674
626.2322249
609.4277763
632.9782295
659.4890883
685.3020039
633.2992662
576.1417596
516.3769526
661.6472501
644.3785534
620.3632392
681.5893091
631.3573674
587.7444913
605.9309404
643.9976443
609.1556695
530.4068581
448.9172457
484.9501002
557.6974003
564.7711356
604.1199869
624.1536017
680.4537175
716.2354092
693.2421675
693.006558
747.2607608
448.1390842
637.883124
627.6514997
569.6881865
534.4774127
581.8973071
582.3712275
528.4934712
395.7568976
298
335.1851186
521.5300171
556.7371559
572.1444687
568.3828451
585.6328678
663.8216339
720.3688684
744.6383812
574.8899417
298
610.6294169
527.8669002
452.9632196
435.5684084
518.2767806
508.8621018
439.5066539
298
298
298
527.5279704
567.2215965
548.1532316
534.967859
539.7168182
593.5225273
687.8234439
694.3586474
568.8275704
458.5627287
360.4833047
298
298
298
298
332.3913385
336.0157592
298
298
298
303.0948932
298
298
298
305.8889201
410.9380104
587.3330695
393.8728917
298
545.7175362
525.1293759
461.1069327
389.5865773
451.71083
539.325597
572.2632506
518.7037441
298
298
309.7669443
509.8918889
546.0872768
518.3972008
514.462002
516.0978838
526.0397669
596.1010822
440.3425069
591.6253165
685.420944
611.4457604
584.742584
523.5893658
555.6078097
611.6742217
630.7998166
578.2198501
382.3178402
298
418.147679
575.6917052
607.5825972
591.0256234
586.1260375
587.3685598
589.5156108
600.5421215
530.9104297
674.3208964
718.0974182
680.4942371
677.2204978
623.6231726
615.7332671
653.0352393
665.1785077
630.7945147
500.9300848
301.723171
538.3839894
648.4298761
650.8054707
618.9606186
597.357031
581.0797477
606.5050752
617.788607
643.2633529
698.7526732
576.3335964
732.875684
726.9546017
680.1420815
647.6653888
651.8154104
655.6935668
646.5088007
574.7253407
433.1094821
627.1649147
683.5208404
674.7127926
643.1473715
597.9845189
577.0368834
617.1549462
648.3482968
652.9903888
524.8014658
298
757.48866
738.6155001
673.5247503
619.4409119
614.809719
626.742151
640.7669373
620.0641873
555.9057803
680.582345
666.3802485
627.9849775
597.5360756
547.4189888
533.8678969
602.5860563
647.3972078
634.6072328
298
298
726.0675524
694.9709827
623.0892074
564.182525
557.282419
600.9213701
654.0577967
647.4195382
612.6066572
593.3641605
595.3525436
581.3157882
588.0529585
549.9166221
578.0553214
639.8289304
667.5421413
683.2092876
565.8272319
298
678.862437
642.2430894
562.264877
518.6490111
514.3072726
564.3751226
636.1714721
626.4226956
622.1170718
557.5362787
591.9670612
602.0818331
626.5894091
581.0321608
600.7587756
655.2187188
674.3094491
694.1479221
694.4603589
585.7921288
576.093148
460.5296673
436.9506391
514.8004452
468.5577794
423.7103577
384.5581665
348.4305301
347.5094784
383.4067451
419.4239561
447.9215455
451.0778334
451.9557349
471.2538591
494.6604806
409.6876327
422.652884
485.1183614
525.5372721
304.3942724
298
397.2377092
525.9722899
439.2094209
359.2570009
298
298
298
321.8164968
374.0484916
438.4022214
481.2975702
504.1792032
529.7788831
460.0258292
298
298
389.8597126
467.5280396
298
335.6945138
509.0874356
464.6216308
351.7512612
298
298
298
298
298
298
386.4298296
453.4625098
488.3920489
480.3900514
377.3434292
305.0044514
298
306.3385991
438.5257341
527.6797496
497.4140115
508.4604277
405.3486738
298
298
298
298
298
298
298.4470552
376.4525818
469.7367981
511.3951194
442.7465246
298
298
298
298
438.050285
554.213307
540.6992342
513.4402234
443.2674382
353.1203752
298
298
298
298
298
298
422.2735494
540.3912642
524.6481234
411.5984599
298
298
298.5212857
298
441.2870779
519.4216023
486.2941263
474.1560067
471.202334
434.7458622
398.2117571
340.4890003
298
298
298
370.0750853
514.7041654
570.9889592
398.973244
298
298
298
312.9244763
298
376.3057725
541.8877224
511.7012123
487.2688144
493.8884353
510.8412699
506.8841093
459.3335
424.1345293
374.8030257
433.4258219
503.7404472
598.7872238
603.2886962
466.2014647
309.2964072
298
298
300.073502
298
393.3516584
549.1506252
530.7457724
484.9426658
471.6113316
505.7212075
545.2071024
538.6104557
512.4984438
488.0590703
503.0850461
539.955015
536.3492701
564.6802222
556.6473698
440.757216
329.9418461
298
298
350.1213803
495.2785736
527.9142784
529.2706733
455.7850987
432.9013929
473.9283705
531.8014603
509.1250955
464.4606422
410.2583639
404.6436008
448.4756742
436.3381521
470.0577318
518.8466251
554.9333336
478.9032442
419.7138902
385.0477435
501.8117452
474.6999739
519.8262068
512.5976786
426.034009
393.8634356
431.6440725
480.2252848
444.6962079
364.0055264
298
298
380.6886003
400.4520701
434.9411564
472.5747378
532.8668934
571.966809
538.3525372
543.5862942
570.107607
298
518.1660861
457.0228477
379.3048564
346.0219917
387.7799385
417.2623816
384.213741
298
298
298
313.9512472
366.8128383
386.9960815
414.480581
444.2230591
494.4461044
564.1946475
591.6961917
421.3869322
298
446.1251992
347.5664064
298
298
302.0258561
353.5136911
332.5434083
298
301.6379559
298
298
298.3902856
298
346.0814467
389.2377729
434.4377206
528.56755
558.7633231
426.3039045
298
298
298
298
298
298
298
298
300.7075105
315.9516799
298
298
298
298
298
298
298
416.3384479
344.645133
298
382.8847931
334.9128341
298
298
298
299.9830433
340.9193829
298
298
309.7784892
298
298
298
298
304.9365922
337.2763297
368.3514272
445.7504339
308.0753989
298
491.6761339
416.1663219
375.6026275
338.1003
356.8751587
402.1956848
417.1861041
379.6971959
298
298
298
346.243555
364.1285199
367.299329
390.6808482
417.8432732
438.1710753
463.9697615
382.7466788
459.6170188
554.0684301
485.9086346
456.3719428
410.4982707
409.4156421
447.8057381
452.4633848
423.5543387
298
298
346.7389575
424.0623717
433.0450406
422.3511864
435.0562966
442.0639499
461.2021437
471.6285639
471.1884042
509.0633897
444.8702982
551.4952587
524.4907497
474.8961044
457.1637151
470.7314979
468.906461
449.160565
356.4976364
298
423.5415206
494.2798388
500.3579685
480.7984031
463.4992626
446.625535
458.200794
484.7399914
499.5104231
356.9120232
298
588.818099
558.6192846
494.6731952
460.8626615
456.935275
454.5149031
461.1718986
414.4792345
365.3426478
500.0077901
510.888006
487.6628115
449.9112245
403.8622971
372.957588
398.1903324
462.1068617
477.7960589
298
298
571.5762032
536.1686284
463.8286074
419.2653587
415.4823134
440.1612166
475.6530781
448.6990482
403.7909337
359.0204996
420.9265781
411.0316786
389.1350723
351.5313533
355.3725515
398.1877077
452.0466435
496.3292626
427.3847981
330.6612234
525.5061607
471.5763576
389.7513764
351.3985748
358.1373699
406.2550529
467.536581
448.8971391
415.5649559
304.849371
395.8711975
409.1984405
402.7540017
362.9771672
371.5902481
415.4709963
439.874513
455.2848632
505.2495644
475.9323308
479.8540147
378.8681431
365.8293023
412.9872402
377.9332923
352.6192673
330.3062993
299.9551616
298
326.0737487
350.7998134
376.3193116
373.3128181
370.0963821
378.9085915
404.8466205
361.6237716
367.1381419
419.7160883
444.3753128
298
309.797831
363.1893066
417.1253004
344.7609396
298
298
298
298
298
316.3956809
359.0398817
401.5014146
427.1460883
453.382693
394.3167948
329.6156561
309.3309795
311.4220451
390.8646432
298
316.4280216
398.3719164
359.0501467
298
298
298
298
298
298
298
307.7648777
368.5458588
412.058701
411.4601398
300.0249
300.329326
298.9130972
298
363.5946386
417.5633432
394.2506923
381.4682875
304.1715405
298
298
298
298
298
299.2352994
298
298
375.8163605
433.7344
371.7361766
298
298.0013765
298
298
361.832809
457.9491655
430.2958391
396.8205076
344.6589582
298
298
298
298
298
298
298
308.0103172
425.7861967
435.9598178
329.1113782
298
298.6246019
299.7253303
298
376.125595
440.7111175
398.9645985
387.8606115
396.5145367
370.5769656
343.2270347
305.6807745
298
298
298.6060288
304.3395685
415.6465898
495.015947
356.7168227
298
298
298.3469507
302.2787086
298
334.2043281
467.4344866
422.4011724
395.8900502
408.1641452
429.5891063
440.6591557
400.6686842
367.3344166
328.5794202
380.067356
426.7938143
505.1595023
529.1101134
413.5144438
298
298
298
298
298
339.7515212
468.2704724
423.3368257
371.1177672
366.075166
397.3236083
453.4298385
451.5115077
427.6580427
398.9329998
413.9402929
436.5779076
431.9948985
460.2869791
462.6875022
388.7601527
298
298
300.9218059
326.8205395
424.5492
449.1221631
414.8161463
337.2392474
326.4023613
362.1768895
427.7019059
410.9281067
371.0638857
335.4069905
326.6536674
347.2564533
342.3947552
373.7012484
419.7847055
471.0693702
431.4845851
350.6948097
340.2443498
432.8918925
383.3907494
436.7295716
390.8149628
310.7812748
299.9548601
331.6032583
386.456458
368.3651981
308.7498759
298
298
298
312.0795962
336.9807092
372.7800785
432.4338403
479.2705009
467.2031726
477.6049627
469.6740211
298
425.0816863
352.9731456
298
298
299.7913881
339.6982587
333.7751593
298
298
298
298
298
298
327.4519667
359.3120375
396.3193496
461.6792749
497.5647018
336.7285464
298
354.7970789
298
298
298
298
298
298
298.6592324
305.0749986
298.0440136
298
298
298
298
305.7426246
341.0011253
425.9593184
477.0539143
351.2102574
298
298
298
298
298
298
298
298
310.4594265
316.7420041
306.6339575
298
298
298
298
298
298
330.5251751
309.2984383
298
298
298
298
298
298
298
298
298
299.7659448
307.614052
298
298
298
298
298
298
303.9481219
357.5553316
301.50181
298
388.4947576
326.0306663
298
298
298
298
300.1903035
298
298
298
298
298
298
298
312.6570843
338.6176428
361.592085
389.7842937
331.934115
359.3416359
462.1736626
376.1203542
341.8008493
315.293465
315.4124753
335.1974818
335.242108
320.9740434
298
298
298
337.5201452
337.731351
334.7408043
354.2298994
367.4728892
384.8356488
391.8899242
390.2912897
413.1353439
376.1840351
439.3935852
397.3037568
360.3842994
355.9878742
368.501653
365.0311162
348.2141309
298
298
353.9172496
405.4406025
411.6141323
401.6933736
396.6920159
383.5202143
380.8998095
391.0904966
412.3757944
303.9619335
298
479.3396218
440.4775943
387.2191289
374.04247
374.4968277
369.8545633
368.4064029
323.4033002
304.7309192
404.8282765
419.8360605
406.8040031
378.2320165
346.3037504
318.9894247
312.5464911
345.5763619
375.6732022
298
298
469.7072746
438.3295544
377.9744175
352.9304084
351.31673
367.1153675
384.2457823
345.6372658
303.506047
298.4066442
333.8898967
327.7522945
311.455896
298
298
299.3412007
335.2390066
384.3838886
355.1712047
320.3992473
438.3734278
384.1132976
320.592828
298
304.2298349
345.5311527
387.0824374
356.9490541
311.4685132
298
302.5997835
309.0677156
300.2366077
298
298
314.1544758
329.4346349
338.9502216
381.754279
391.0160464
411.6922165
338.5301794
328.9203998
359.6583191
336.0397768
322.4851358
309.7715754
298
298
300.3123651
315.2145842
332.4865844
329.0199333
326.4511336
333.4648193
351.9649536
329.2575506
330.3210977
379.6924989
391.4502173
298
304.6033153
337.0928049
364.6743803
310.4329701
298
298
298
298
298
303.9366295
326.1534487
357.8392988
377.8628137
399.934223
368.0334487
327.848577
311.3965797
309.4152151
350.2872058
298
298
333.5116829
306.3774838
298
298
298
298
298
298
298
298
322.9988278
363.9658963
366.6486554
309.9421196
304.2509808
298.5190589
298
324.7270842
351.6851719
333.3515183
317.7300241
298
298
298
298
298
298
298
298
298
320.1485984
378.0473366
339.7220652
298
298
298
298
329.6730102
389.2236406
362.8331676
333.6552463
306.2128959
298
301.6067677
302.0351987
298
298
298
298
298
348.8023913
379.492019
301.5108919
298
298
298
301.4598905
336.9031036
388.3303379
353.6822473
343.2105717
355.8593843
343.9832512
333.4437697
316.9479802
304.8195374
298
300.9604267
304.4928502
366.0533643
440.9524095
345.691263
298
298
298
298
298
314.9854085
413.8521302
370.7825814
344.2817664
357.0996142
376.8560413
396.0174176
370.2735783
336.0818145
299.6380331
342.0090477
376.4761499
437.2112306
469.6907212
393.3738445
317.3939625
298
298
298
304.8492491
319.7138025
404.2340313
363.0035531
316.7991772
317.1201816
338.097222
389.4232536
397.2059561
373.8163771
341.8049574
360.3778534
371.9234885
365.1528109
388.9357583
398.4299684
367.971268
323.368219
299.4172843
311.1513432
336.5851726
375.0018084
384.191327
351.0984167
298
298
309.7165713
360.809467
358.4977864
323.9189352
298
298
301.5599501
298.1023104
318.300709
353.7501627
402.452278
393.4315509
345.3461328
343.7683031
387.5665651
336.6745418
372.0064987
330.1214304
298
298
298
330.0461673
328.9411848
298
298
298
298
298
298
317.4286974
363.4363925
408.0830076
420.7737346
436.1231362
399.7551138
298
370.8077306
308.1224109
298
298
298
298
298
298
298
298
298
298
298
298
311.3986333
339.9913991
400.3319024
439.4348596
298
298
318.8560791
298
298
298
298
298
298
298.2646905
300.1922627
298.2993126
298
298
298
298
298
298
362.2602796
422.2684184
305.3936567
298
298
298
298
298
298
298
298
302.6108367
304.6758386
301.27312
298
298
298
298
298
298
298
298
298
298
298
298
298
298
298
298
298
298.8256719
300.7818327
298
298
298
298
298
298
298
312.8945612
298
298
325.446157
298.0364912
298
298
298
298
298
298
298
298
298
298
298
298
298
310.2954095
329.3032676
351.0125142
315.4549907
317.8414768
408.6128614
329.0732379
302.5755507
298
298
298
298
298
298
298
298
319.578598
310.7417375
307.7694212
321.8943683
332.8263664
346.4108505
352.7147998
353.7604549
371.8771342
337.5510338
381.4585059
338.3081336
312.026973
312.4549457
318.1524829
315.7232531
305.7672523
298
298
326.6301069
371.514175
369.6334093
361.0156459
356.4250594
345.4544217
337.9775476
337.3254348
355.5139418
298
298
411.6323307
375.5809326
335.7294781
331.0667188
331.7501725
327.5278017
323.7021401
298
298