/*--------------------------------*- C++ -*----------------------------------*\
  =========                 |
  \\      /  F ield         | OpenFOAM: The Open Source CFD Toolbox
   \\    /   O peration     | Website:  https://openfoam.org
    \\  /    A nd           | Version:  7
     \\/     M anipulation  |
\*---------------------------------------------------------------------------*/
FoamFile
{
    version     2.0;
    format      ascii;
    class       volScalarField;
    location    "60";
    object      Tavg;
}
// * * * * * * * * * * * * * * * * * * * * * * * * * * * * * * * * * * * * * //

dimensions      [0 0 0 1 0 0 0];

internalField   nonuniform List<scalar> 
16320
(
1600
1331.522858
1600
1338.413606
1600
1600
1600
1600
1335.373883
1600
1339.590042
1600
1344.309569
1600
1600
1600
1600
1330.709861
1600
1330.449694
1600
1600
1600
1600
1600
1600
1333.851004
1600
1600
1332.594886
1600
1342.387366
1600
1345.670036
1600
1337.113924
1600
1600
1600
1600
1338.823807
1600
1346.226849
1600
1344.13834
1600
1600
1600
1600
1600
1600
1600
1600
1600
1600
1600
1327.241531
1600
1328.267085
1600
1600
1600
1600
1600
1600
1600
1326.208512
1600
1318.051636
1600
1332.494531
1600
1345.408521
1600
1335.917864
1600
1600
1600
1600
1328.833055
1600
1349.092412
1600
1600
1346.473499
1600
1328.646501
1600
1600
1600
1600
1600
1600
1342.154713
1600
1318.008982
1600
1308.871846
1600
1600
1344.812792
1600
1353.646068
1600
1350.080667
1600
1600
1329.541535
1600
1331.641229
1600
1348.428061
1600
1600
1600
1600
1600
1600
1312.507629
1600
1600
1600
1600
1600
1600
1600
1600
1600
1600
1341.183149
1600
1600
1353.537962
1600
1333.559807
1600
1308.802799
1600
1600
1600
1600
1351.4307
1600
1356.629971
1600
1354.977259
1600
1347.416844
1600
1600
1600
1600
1600
1600
1600
1600
1600
1600
1324.447669
1600
1600
1600
1600
1600
1354.960559
1600
1600
1600
1600
1345.363754
1348.554367
1600
1353.0048
1600
1348.263888
1600
1338.072355
1600
1600
1600
1337.325033
1600
1348.481799
1600
1600
1600
1343.711491
1600
1600
1600
1600
1600
1600
1600
1600
1349.892555
1600
1344.772843
1600
1600
1600
1600
1600
1600
1341.957968
1600
1333.24378
1600
1324.189491
1600
1333.764246
1600
1341.979097
1344.462452
1600
1600
1600
1600
1600
1600
1331.743994
1600
1335.675719
1600
1600
1600
1600
1600
1600
1320.028919
1600
1334.308152
1600
1339.579171
1342.603383
1600
1348.951364
1600
1600
1329.743713
1600
1600
1333.207585
1333.155254
1600
1600
1600
1312.853196
1600
1600
1600
1600
1600
1600
1600
1600
1600
1600
1339.529992
1600
1337.337345
1600
1600
1600
1600
1333.475898
1600
1600
1316.587532
1600
1332.401495
1600
1339.89514
1600
1340.767996
1600
1345.048651
1600
1600
1600
1600
1344.700976
1600
1344.502189
1600
1600
1335.882959
1600
1600
1600
1600
1600
1600
1600
1600
1345.47806
1600
1345.482381
1600
1600
1600
1600
1600
1600
1350.290696
1600
1600
1600
1338.067915
1342.031219
1600
1600
1600
1348.4216
1600
1600
1600
1600
1600
1600
1600
1600
1354.766311
1600
1600
1600
1349.872556
1600
1600
1600
1600
1353.054413
1600
1600
1349.908906
1600
1348.557784
1600
1600
1324.520286
1348.393271
1600
1600
1600
1351.630629
1600
1600
1350.675538
1600
1351.488059
1600
1600
1600
1351.057496
1600
1600
1600
1600
1331.024381
1600
1600
1600
1347.193361
1600
1600
1348.483016
1600
1600
1600
1600
1600
1351.095654
1600
1600
1350.84068
1600
1348.652725
1600
1600
1600
1337.365845
1600
1600
1339.798613
1600
1600
1600
1344.807884
1600
1344.24787
1600
1600
1600
1600
1600
1600
1600
1600
1334.444885
1600
1600
1600
1600
1600
1600
1210.810483
1600
1204.510392
1600
1206.436499
1600
1215.405579
1600
1218.777441
1600
1600
1600
1600
1600
1600
1600
1208.326184
1600
1217.8694
1600
1600
1600
1600
1600
1600
1600
1600
1600
1600
1600
1600
1201.051297
1600
1199.926946
1600
1600
1600
1600
1600
1600
1600
1600
1185.536426
1600
1600
1202.805444
1600
1220.722886
1600
1214.002831
1600
1600
1600
1600
1199.801561
1215.956998
1600
1227.206723
1600
1600
1203.386993
1600
1600
1600
1600
1600
1213.637338
1600
1218.367923
1600
1191.987818
1600
1179.666146
1600
1600
1600
1600
1600
1600
1600
1600
1600
1181.848514
1600
1186.900207
1600
1600
1600
1600
1600
1600
1600
1600
1178.556945
1600
1600
1228.421266
1600
1231.665673
1600
1217.043642
1600
1600
1191.033293
1600
1212.837823
1600
1227.845613
1600
1196.337144
1600
1157.693881
1600
1600
1600
1221.308962
1600
1234.359939
1600
1232.832791
1600
1220.491915
1600
1600
1600
1600
1600
1600
1600
1600
1181.340714
1600
1163.800954
1600
1192.12334
1600
1600
1600
1600
1600
1600
1600
1600
1219.739785
1222.370543
1600
1235.17923
1600
1229.065244
1600
1600
1600
1600
1600
1600
1600
1226.649041
1600
1233.537546
1600
1600
1228.609719
1600
1600
1600
1600
1600
1600
1230.468486
1600
1218.32199
1600
1206.354216
1600
1600
1600
1600
1600
1600
1600
1600
1600
1209.946014
1600
1600
1213.585577
1219.200769
1600
1600
1600
1600
1600
1600
1600
1203.044547
1202.322927
1211.006466
1600
1214.75371
1600
1210.156724
1600
1600
1600
1192.600243
1600
1209.089485
1600
1217.981993
1222.793832
1600
1230.038697
1600
1600
1600
1600
1600
1600
1600
1600
1198.31114
1600
1175.56459
1600
1600
1600
1600
1600
1600
1600
1600
1600
1600
1211.1879
1600
1200.662025
1600
1199.359886
1600
1600
1600
1182.789003
1600
1166.349141
1600
1191.838422
1600
1204.009422
1600
1209.122696
1214.966206
1600
1600
1600
1200.668498
1600
1600
1600
1600
1205.534759
1600
1600
1600
1600
1600
1600
1600
1600
1600
1600
1214.977518
1600
1218.544416
1600
1600
1216.102912
1600
1217.577482
1600
1600
1213.572503
1600
1600
1600
1199.332487
1600
1217.715272
1600
1217.511927
1600
1600
1600
1600
1600
1600
1600
1600
1600
1227.466527
1600
1600
1600
1210.030247
1600
1600
1600
1600
1225.610852
1600
1222.653126
1600
1224.022346
1600
1600
1200.241662
1600
1233.450934
1600
1600
1600
1229.070377
1600
1600
1219.512398
1600
1228.935757
1600
1600
1600
1600
1600
1600
1600
1203.672964
1600
1600
1600
1600
1229.755999
1600
1600
1228.353175
1600
1600
1600
1600
1230.459242
1600
1600
1226.674798
1600
1224.987861
1600
1600
1600
1600
1223.108998
1600
1600
1221.779689
1600
1600
1600
1224.967645
1600
1226.569625
1600
1600
1226.285357
1600
1600
1600
1600
1201.195471
1187.042924
1600
1600
1211.074057
1600
1600
1216.687398
1600
1600
1600
1600
1600
1222.561108
1600
1600
1600
1600
1223.472085
1600
1600
1600
990.1864877
938.3867209
975.9685526
1013.140667
1018.434443
973.354159
954.1141991
921.6363669
922.4364338
915.150263
910.7952957
907.6815007
930.0385988
947.7035486
981.7368528
981.5388762
938.8817263
967.9936155
1010.427037
1038.800033
951.3563056
845.9583852
899.4608755
1025.387437
1052.538417
1005.727835
966.5795011
904.5765808
927.8179089
951.7255374
959.8911694
960.9260744
964.2175296
972.7474895
995.1843065
971.189126
912.168697
931.9340476
971.2340267
997.0926993
946.9681645
846.1629688
1007.220231
1056.664368
1032.337545
954.1691585
872.1768443
819.5265221
941.3744006
899.042888
925.8944361
941.5649563
928.6554799
934.7567586
946.9209721
932.9299563
866.5519575
887.1968098
946.1935935
980.116889
946.094327
951.9493568
1019.146611
1042.455401
975.2667932
865.7290502
792.9717155
933.019035
735.7935405
792.3318987
894.2609011
931.7265416
936.9921815
928.9939991
926.3852818
868.8956068
753.6718139
805.4446645
914.7176607
990.8468961
940.7687095
971.2627338
1008.358605
1019.42768
981.0757797
913.1386811
838.9353296
738.1023818
485.5284293
720.3360234
876.1002139
980.1779805
1009.126292
982.1642161
925.3766728
825.537865
672.5179335
748.1903541
871.0761087
978.6382175
912.4871319
909.2787016
924.2723559
934.4150158
942.1884386
941.1270917
923.5539493
843.1592018
672.4047951
809.4993724
917.9359096
1006.388164
994.1146388
915.5094112
728.487421
485.0448933
298
298
677.3850549
900.0412363
936.8603489
940.1264306
935.0573279
943.837677
952.7492346
983.2761205
981.1105771
956.9750612
859.4471412
927.0913307
1007.543917
1050.434547
1040.385997
1000.716386
878.7375383
714.0132009
511.2453468
298
686.4059378
890.1249891
988.3119667
991.2300365
997.3165641
979.963497
1001.508682
1024.275484
1015.491235
997.1420964
950.1051591
956.2651506
1007.610191
1008.809845
1020.209569
1003.239058
982.6431002
898.3666634
805.0269156
662.1578981
894.0512586
982.7622038
964.6710961
988.8796414
1004.985431
961.934609
978.1753507
1020.71063
1004.118281
1012.942212
1000.566474
982.0593471
966.0389155
950.6587127
965.9027833
953.5587986
994.4538324
979.451948
956.4274871
876.9169989
1012.019183
977.816474
925.1962358
986.6638567
996.0069578
956.2396851
1005.267649
974.741199
969.3526102
946.20696
916.361079
942.3621363
907.1094916
883.8549932
930.4495857
932.6051667
981.674976
1023.337673
1034.05788
1021.422099
1052.364123
883.1535633
870.6537776
950.6828753
960.5775761
938.677783
944.9516311
926.7866627
918.5467138
851.4164421
760.2232971
877.9366584
902.3675651
886.1661977
896.6473603
866.712585
887.4233787
982.5738694
1027.539062
1049.401151
990.3022079
710.1739554
949.5384077
934.1977011
895.6008108
915.8233494
955.9020715
907.7939071
843.1104098
711.6142727
542.2275301
874.2443432
940.5550941
950.1399723
918.2043341
888.442003
879.2618504
937.960729
1019.037484
1043.874714
934.3715627
810.7780793
862.4222089
786.8551396
683.3515525
744.078099
886.858681
873.652836
742.8232028
519.5719211
298
873.5026187
920.4493795
926.2996312
835.534992
823.4685502
796.0175361
821.8905912
953.3145773
970.1304675
847.8667714
912.6679565
949.467383
949.9245485
887.3659474
910.9969428
940.6677751
959.9726107
932.6965068
823.1754648
580.0817067
916.7276651
995.8725928
1016.950469
972.0623022
945.1766509
893.5015584
857.0006978
920.2068548
927.9404516
985.1342413
1036.472286
979.5374174
1000.192168
944.7341409
952.7464064
971.9391031
982.9091012
992.3212817
917.1575358
696.9970222
931.3601734
1018.89955
1012.65149
976.7111754
938.9853681
921.2315067
914.7265276
925.648031
998.5418393
1041.389368
1043.802497
1035.811274
1045.356848
1000.281801
967.5016763
991.4078363
1007.8803
1015.054632
952.3048701
834.9050156
983.9825768
1040.981613
1017.116285
960.1999457
916.0047235
898.5359462
940.8801911
946.4326514
993.7003091
1026.980457
889.8026219
1060.083387
1051.118167
1021.966302
982.2664572
980.9080007
974.468775
991.1464361
975.0838336
908.3527723
1012.191968
1016.046615
994.7645471
971.2947182
1005.911691
910.4501464
974.2306388
983.0927374
995.3425083
891.9860597
954.2268099
1076.074676
1053.17255
1005.002163
942.1070953
936.4676862
949.0244431
968.6282099
989.5554095
970.4496672
1021.461734
981.1303985
945.0889993
953.9575904
907.3819445
900.1298272
974.6068433
975.8813276
934.7783206
745.3276548
298
1050.389608
1013.358032
958.7777434
912.9335006
891.3245296
936.0593767
996.8937373
1013.7309
980.8604559
974.8480632
939.4143376
934.1026225
972.538403
934.4737354
962.6210148
1027.28625
1023.686604
1029.88031
936.9243531
724.7283864
1005.139295
981.1829573
922.9304411
902.259965
986.7990714
919.6050526
1002.08398
1013.893223
993.6751307
951.5170526
949.9709862
956.9013705
1017.996044
991.6243727
1004.101489
1039.9061
1033.23007
1059.405853
1041.084984
913.5222606
716.3610148
591.1420302
563.5141263
682.3521479
747.1855131
596.8911241
551.0707425
504.2910127
505.2307458
539.7668764
744.3932927
595.030363
611.1863788
622.1883691
656.2674083
645.3998156
544.8926455
561.6018633
650.7867509
731.4774244
665.4173429
298
298
703.5865812
647.8153418
548.7108599
444.9961895
395.8865984
709.7158742
467.3492465
554.0736262
754.8689853
645.2430399
771.957115
687.5851381
620.4828392
438.2242045
453.0929803
584.3385465
654.804814
757.3100075
298
764.6030228
674.9648697
748.3861576
421.1730913
298
298
298
300.3582809
456.6187797
564.2333232
614.3869593
640.0645884
637.2074809
548.3409043
715.4340382
298
721.2066411
630.2191218
670.6965958
773.6885977
693.1197083
619.427056
464.5145841
298
298
298
298
298
722.1420233
539.0914817
768.6653062
645.630043
747.5906872
484.6403679
298
298
488.0091164
623.3964458
678.1361198
685.5139121
690.3387489
776.2662976
554.5094324
732.2681455
299.3645206
298
687.7408086
298
398.4970692
760.3822774
695.8216955
765.3085569
568.3901912
702.0183483
298
298
463.5051946
723.3721334
778.1196093
616.6927436
790.5256494
616.24528
772.1931579
564.767375
735.067884
407.389199
298
350.6675166
505.5756674
671.3881193
697.5317747
529.336352
345.9190928
298
298
669.6837393
298
495.8136522
661.4349009
645.9070514
630.6549911
634.1513295
646.2254908
655.9784013
624.7330719
562.2291514
743.980985
531.4084442
774.9564738
745.6225543
796.7793273
636.5729302
742.4148457
298
298
298
298
724.936414
681.5626118
789.239738
669.9277545
794.0894828
672.2045552
791.809517
691.5310353
771.226154
633.4489787
648.3817468
697.4574121
700.5400474
719.6589627
701.5403873
618.2886528
488.5678759
717.8746633
712.5026879
482.7386353
632.0919011
763.8872584
691.5066623
660.9528593
622.5816802
650.0846294
698.2337135
678.6444032
650.4276549
603.6131606
760.6171638
629.2562711
781.5120388
788.5204168
662.6112047
781.8658965
636.2815306
578.0558138
518.0192007
664.5005462
647.4901427
621.9951275
684.8745682
770.0693706
589.5022826
607.1358985
647.2411039
758.0177423
535.3524061
732.7127606
487.1454169
560.4833609
567.4384056
606.8423332
626.9659905
683.5468538
719.6985854
784.1234173
696.1113722
750.7961976
740.2342613
640.6766855
631.2488965
572.1090322
535.6579823
582.7078423
585.5795461
532.8707262
399.2294937
298
336.1283669
523.7858209
737.7423728
574.6210759
759.2256076
588.4033196
666.9621475
723.8823228
748.0845321
577.345471
298
728.6887606
531.0778507
727.064554
435.620647
724.4248858
510.6197822
703.7641964
298
677.7928628
298
706.766489
568.8755585
730.5561193
538.105631
751.3857453
597.145037
776.4064031
696.7335684
571.5613628
726.3998849
364.625682
298
298
298
298
328.9672284
336.4192406
298
298
298
301.780078
714.3424185
298
298
310.7633217
415.9518053
591.9621023
758.0956462
298
548.3158366
528.6386645
731.1672241
390.3864542
725.3380016
539.0996947
721.7673071
521.1774446
298
680.7471738
310.3275255
508.7368265
545.2628145
518.5813311
735.4906286
519.4613578
750.6444083
598.3483672
433.0039282
592.8046653
688.1327584
614.8870842
587.6215165
525.4443026
556.2564625
748.1249279
633.3246746
729.2993112
385.358346
298
420.3394974
734.9722698
608.9327343
750.6783092
588.9945218
590.6699595
592.3603368
764.8704205
530.2602143
676.5879702
749.381828
770.076325
680.2245147
771.793919
617.4955748
655.0583105
668.2616557
634.6558428
504.8496791
728.5681861
542.3182924
651.9643188
766.2157142
621.6083268
600.0783746
765.9797179
608.919305
620.5890552
645.7547203
702.1964117
579.0992266
735.7540569
729.9466723
682.6672133
649.952012
777.8568304
658.5890585
766.2488735
578.955863
438.5687094
632.3618924
687.7225735
677.870739
645.6982812
599.9315566
578.6797321
773.5114061
650.7676898
762.9756293
527.3889808
298
760.1237401
741.2832064
785.779219
621.6839931
617.0800266
629.1606863
643.4971378
766.9510074
561.5982278
685.0347353
776.1817764
629.8433057
774.1652336
548.332196
535.370369
604.2679462
649.7757048
637.9168041
298
298
769.391914
697.256624
625.0358348
766.6744042
559.2834635
767.8175315
656.3648618
649.8179006
615.5783672
589.4684162
595.8331025
770.3421518
589.6576524
551.9270648
580.1231173
770.7244988
670.0579156
759.2940353
568.3642259
716.8228279
681.1566587
755.4174937
563.9881607
520.3420502
516.0749331
566.5121079
638.5617068
755.0915347
624.305161
751.8572339
594.1514672
604.3794338
628.509468
763.1623877
603.0716169
657.6596419
676.7608037
696.7796258
743.2652548
588.8214202
576.5427383
460.2354598
436.5044365
514.851874
469.2596217
424.988749
386.0648654
349.3927328
348.3778996
384.9239825
420.6488035
448.2783589
578.3761978
451.6636946
576.5344504
494.9586863
409.971963
422.6814347
485.1895784
525.8823585
303.494439
298
398.5249609
526.9812131
440.5358783
360.6955218
531.5824882
298
298
532.992631
376.1187487
440.1049061
482.3710216
504.6749443
530.0080983
564.1376067
298
541.6283062
389.7593003
550.5953084
298
335.7119566
508.9914016
465.8007223
352.7193907
298
519.176233
509.327783
298
298
298
388.0373837
454.6500253
587.2474083
480.3287477
377.0724689
304.9535251
298
306.0831082
438.6732381
528.2371145
497.9963969
509.4327917
406.4679094
558.0031823
298
298
298
298
298
298.3439738
377.4804906
470.5857522
511.6724324
442.9149718
298
298
298
298
438.3083211
554.5116312
540.8352699
513.211568
442.7972976
352.5456752
298
526.8637594
298
298
298
548.0870517
421.0783074
539.6322321
525.3005721
412.3630568
298
298
505.5836573
298
441.6211438
519.7330105
486.577321
474.4366514
471.3795008
434.8442693
398.2644929
339.6748443
298
298
298
369.0486478
514.3661373
571.8329674
400.1383962
298
298
298
312.9098073
298
376.211417
542.2479835
511.979497
487.6502911
494.317163
511.266591
507.3800746
581.1433132
422.8778391
373.7720591
433.0471062
503.8568199
599.2003777
604.0803036
467.1895572
309.7898204
298
298
300.098212
298
393.312665
549.3986984
531.0622036
485.1992246
471.568807
505.2098544
545.5299859
539.4760228
513.5194635
489.0231725
503.6747948
540.5149831
536.7696731
565.0190966
557.3024325
441.3495349
329.9601566
298
298
349.972534
495.4074342
527.6757017
529.7412325
597.301427
432.4256122
472.5097335
532.071455
510.831534
467.2047521
412.6124101
405.3244861
448.704434
594.3981481
470.1068299
519.0401693
555.414575
479.2123269
419.5589369
384.6033176
501.8775669
475.137064
519.1125829
513.39132
426.2962086
393.037024
429.7870023
480.6491323
446.9261987
366.6334592
546.3332384
298
558.2010363
400.2165597
434.8314536
472.6077177
532.9947135
572.3355364
538.5111841
543.6347085
580.2609711
298
518.5723733
458.3361006
379.6875164
555.9230851
386.2337567
553.6917119
386.4317091
528.3712656
298
298
312.8386929
366.4265972
559.9476612
414.7930662
444.3817897
598.8257159
564.7124151
592.29056
421.7180682
298
447.9764631
349.3751316
298
535.8926728
301.1333313
531.8177696
334.1408633
298
301.2439664
506.7609292
298
298.1479671
298
347.1944753
390.3741356
435.5313376
529.8436739
559.7106903
568.2495138
298
298
298
298
298
298
298
298
499.6432936
315.693041
501.7560972
298
298
298
298
298
298
418.2599951
345.5141541
298
382.753361
336.7907116
298
298
298
535.3125518
338.270159
298
298
309.4010591
298
298
298
298
306.6655157
339.2033929
563.6840765
446.4435241
570.2514247
566.4026517
492.0956676
417.9935042
376.9643253
338.6730816
356.0929194
401.4477216
416.8428982
381.1477308
524.1677066
298
298
347.0569216
552.8732741
367.7214597
391.9859211
419.4314853
439.2635481
464.6614879
381.9521803
459.7552099
554.6412686
487.1605865
457.7379195
411.0898594
575.2697229
447.231608
568.9810147
425.0690508
300.205538
298
349.0711592
426.017484
434.1322079
575.1379828
435.9517111
442.7036296
461.5355307
471.9629771
471.5169489
571.0497384
445.4191488
552.1403675
525.4418368
475.3844234
457.0073644
470.4569163
469.2819433
450.3806326
562.3644931
298
568.7892731
496.6850618
501.5769068
481.3439628
463.4664511
446.0537684
457.4259948
484.3992579
499.8739503
357.4978045
298
589.0094103
559.0490794
494.8708101
460.7684748
456.7367846
584.3066238
461.7712348
416.1078274
368.3459158
502.3544543
511.5086708
486.7607689
448.0623766
401.7674068
578.4997453
397.5034488
461.7879194
478.3269115
554.1878099
537.6163472
571.4595255
536.0486937
463.6338035
419.0956268
415.2879733
440.0126235
475.4929598
448.6093775
570.499204
353.1650164
418.4758103
408.6346132
387.0841515
350.7577982
355.6502365
398.8059976
452.6877866
496.9869407
427.9919702
331.0533914
525.4623667
471.4319237
389.6063841
351.3584212
358.1664621
567.3211808
467.2891494
448.3264408
414.1159645
303.1089774
566.0361676
408.3594175
402.0300389
363.3590499
372.7726239
416.9203909
440.7013201
571.5148737
505.498768
476.8660899
479.8907873
378.4180669
365.3355101
412.735107
437.7510227
353.5074528
331.164677
421.4802359
298
326.7175238
435.5979959
375.806979
372.4258002
369.4081688
378.6458431
404.8713328
361.8115478
366.8629232
419.427549
444.4073409
450.9444685
310.0529031
448.0197917
417.724384
345.664291
298
298
298
298
298
317.9885429
360.6412458
402.5157039
427.4396228
453.2986254
394.3802821
329.5730843
309.0928354
310.932924
390.8245185
298
316.6800489
398.0587035
359.3882311
298
298
298
298
298
298
298
442.7542948
369.4313745
412.2808528
411.2453079
299.7883682
300.2912669
298.8614508
298
363.5885408
467.4660845
394.4935689
462.5943355
305.1511358
298
298
298
298
298
407.7017463
298
298
376.1504859
433.6849851
371.7678889
428.0870086
298
298
417.9711989
361.9497894
457.8869658
429.9943977
396.1023783
343.828222
298
298
298
298
298
298
298
455.2053141
424.8352749
464.0813224
329.8111766
298
298.6010483
299.7171585
298
376.2329394
440.731414
481.7782739
478.4210655
396.5151852
461.2530421
343.5297912
305.9335916
298.1751708
423.6585739
298.8769951
304.3428801
472.4052983
495.2795829
357.8627202
443.278536
298
298.3332724
302.2788095
414.1784843
334.0782994
467.4749105
422.4361851
396.1331534
408.4004371
429.6441731
440.8226291
400.4050316
366.2947142
327.6753252
379.6307341
469.1518099
505.1452781
529.3630951
414.3267454
298
298
415.3699547
298
298
435.6479314
468.1308644
478.9456364
371.2685461
365.9694376
477.0818275
453.2699214
452.1892722
428.5808843
456.0846634
414.4152067
436.8005106
431.992002
460.1808082
483.0943003
467.1658718
298
298
300.8513306
438.0898926
424.4517801
448.6214287
415.0295444
337.3520901
326.0312926
467.7853838
427.2975288
465.6711984
373.1791915
337.2410861
327.3179033
456.6797977
342.0698648
373.3857553
419.5251596
471.0066216
431.506159
463.5183948
339.6890813
432.6944985
448.8653931
436.0736364
456.2871576
310.8956247
299.5242723
330.1985937
386.0148551
370.0125632
310.2751037
298
428.6265241
298
311.589376
336.5978222
466.3381212
432.1008278
479.1269164
467.0489531
477.3534179
469.7362733
298
425.3475839
353.7958684
436.0006912
298
432.3792884
339.2462416
335.2019693
298
298
298
298
426.7127959
298
327.3338686
359.0528446
396.1142619
481.0165244
497.7823
337.0398439
298
429.7525625
298
298
298
298
298
298
298.517375
304.7768265
298.0292001
298
298
298
298
306.1177825
457.297785
426.4760277
477.3909317
351.1974417
298
298
298
298
298
298
298
298
310.2862747
316.5954955
306.5966145
298
298
414.8687942
421.9272409
298
298
331.2954535
451.5523983
298
298
428.2923243
298
298
298
298
298
406.9520182
299.6510986
396.8690126
298
298
298
298
298
298
304.7312593
357.9008373
301.6242919
298
388.8032368
327.377358
298
431.9284311
298
298
299.7782529
298
298
298
412.463706
298
298
298
436.8225552
339.7669961
362.5579741
390.2889651
331.6593452
359.1884222
462.5154426
454.1950086
343.0321972
315.6662161
315.1828941
334.7723621
335.2872582
321.8257973
298
298
298.7121383
339.5877346
444.8838151
335.512846
355.0293206
452.0375258
384.9920742
459.0440331
390.4995353
413.307453
376.4599404
439.8664927
467.22419
360.7206052
355.7843457
368.1239635
365.1639607
348.8684016
298
298
356.8667671
408.0845009
412.9626222
402.1428229
396.3291188
382.4851848
379.5241125
389.993652
412.1354837
304.1626007
298
479.2110089
440.8147875
467.0045302
373.796672
374.1352204
369.8201482
368.7672272
324.3299486
306.6321664
405.0193223
454.6930515
405.1093448
375.7591347
344.0316076
317.5843152
311.7411733
453.7594245
375.8555678
298
298
469.3132893
437.9558136
377.5902704
352.5861365
451.5314836
366.8511309
383.9169939
445.3323976
303.1108942
298.0828657
331.6599434
325.516012
447.7113445
298
298
447.6934633
336.0180728
385.1308961
355.8418345
320.9194959
438.0924459
383.7654427
447.8919684
298
304.1948466
345.3751124
386.5278561
356.0847112
310.2514576
298
301.7846365
307.9681991
299.7690118
298
298
315.3970193
330.2433698
338.9263171
441.9797495
391.5417425
411.5530736
338.2353668
374.1246391
359.4156406
336.2152071
323.0885562
310.172353
298
298
300.2641166
314.6252163
331.0540575
327.8130746
325.7436393
333.1693806
351.9370923
371.803389
330.063038
379.3964222
391.4441996
298
304.7688175
337.3748172
365.0811632
311.1763993
298
353.8972889
298
298
354.9124324
305.039071
374.1637208
358.616622
389.3045512
399.7911213
368.0672904
327.9296724
311.2726166
366.4086615
350.2502311
298
382.7404235
333.3121953
306.8453348
366.3005689
298
298
298
298
298
298
298
323.6483179
364.2204656
385.1326038
309.9809745
363.2675267
298.4754743
298
324.7488232
351.7234679
333.3902986
317.7561311
377.9589211
298
358.2231606
298
298
345.7766362
298
298
298
387.2743018
377.9847294
339.6736987
298
298
298
298
329.7905158
399.0055385
362.4582783
392.8842744
305.7480408
298
301.9192997
302.2524446
352.5243656
298
298
369.0613747
298
394.8551785
379.4411089
302.1782718
362.6912944
298
350.7724691
301.4755576
365.7273695
388.3181344
353.6581912
343.3305244
355.8717529
343.9935115
380.8933425
317.3923257
304.9367286
298
300.8506372
304.6638605
365.649758
440.7626621
398.3367093
298
298
298
298
357.7640572
314.9325401
413.8878283
370.8141685
344.5683406
357.3701126
376.8491644
395.9294694
370.2371366
380.6623269
299.2483986
341.4404917
376.173603
436.9908716
469.7404939
393.9256592
317.5150327
371.9887867
298
298
304.864423
319.7241128
404.1361808
363.0468162
316.9613901
317.1749131
337.6917852
398.5571826
397.7363532
374.4822673
341.6282039
360.7395659
372.1544639
404.4727769
388.8124627
398.3604571
368.0586709
323.4078415
377.6166704
311.0786765
336.532043
374.909912
383.8479611
351.2604206
388.0280041
298
309.1277305
359.9919903
359.3569721
381.6975893
298
298
301.6541843
298.046576
396.6722182
353.443515
402.2298237
399.5125792
345.1382572
392.0856027
387.4221675
336.6613464
380.6467541
330.5409158
298
298
298
329.2009063
329.8112301
298
298
298
298
373.033742
298
317.1464587
363.0537322
407.8190313
420.5993416
435.9152986
399.8076593
298
371.1281044
308.8740165
298
298
298
298
360.0992482
298
298
298
298
298
298
298
386.1962409
339.7125157
400.2149547
439.57225
388.6235595
298
319.6073957
298
298
298
298
352.6217422
298
345.6335999
300.0919685
298.276315
347.0579939
298
356.6778479
298
298
298
362.428334
422.360509
305.399048
298
298
298
352.5825976
298
349.4021772
298
298
302.5575327
304.6331068
301.2597974
344.8527184
298
298
298
298
298
298
298
298
370.724711
298
298
298
298
298
298
298
298.7870639
300.7287379
298
298
298
354.973742
298
364.8090056
298
376.932195
298
298
325.6251567
298.6976781
298
298
360.0816524
298
356.8368928
298
349.0831394
298
298
298
360.0430499
298
298
311.0790837
330.1366841
351.5154284
315.5365097
379.6811108
408.886396
329.8598648
303.4462885
298
298
298
298
298
298
356.0121395
298
321.1911065
311.6515131
372.9133648
322.269612
333.0082333
346.3836673
352.5516999
353.8713695
372.0197891
337.7976333
381.8822946
339.1076693
383.0872518
312.3885843
375.7856501
315.8390789
368.7748015
298
298
327.7501554
373.0907785
370.0584842
360.4764897
355.1547641
343.8586561
336.358472
335.9874012
380.4633446
298
298
411.5440088
375.9088223
335.7645874
330.8943853
331.5116454
377.0492339
323.976396
298
298
372.4759654
359.6042697
379.1947519
329.2599074
375.8526337
302.5013945
376.3209192
300.3755648
376.1684191
298
366.0897118
390.9828027
377.63247
334.3576164
322.5101243
322.9023518
332.8789577
339.2690835
304.472841
298
298
301.3393641
299.7916925
298
298
298
298
299.780935
330.0624901
322.3839682
307.2425326
382.9369284
339.9547215
377.0251592
298
298
372.0196146
347.8987658
316.2008339
298
364.358054
298
369.4913974
298
298
298
298
298.9062512
299.5585359
327.404815
346.5222788
372.4715628
318.977247
311.4725549
331.8056945
332.5332853
309.7360414
326.9280707
298
324.9523056
298
330.5640742
307.1379968
305.8323967
305.258249
311.1043529
340.6502152
311.2585033
334.8781448
350.375496
354.0670433
298
302.8895901
323.1785994
339.2619575
302.0831666
298
298
298
298
298
305.5137139
315.5124329
335.9133789
349.3811888
364.3474696
345.7333233
318.6811396
303.8521149
314.7422375
329.629776
298
298
303.6169047
336.4537724
298
298
321.8450755
298
319.6394381
298
328.2032756
298
303.1655996
335.9434161
342.3374162
316.8235171
307.6148769
298
330.6132858
309.3475887
323.8421569
308.3062088
298
298
298
299.4263179
299.3580625
298
298
298
298
298
298
339.4236649
320.4466858
298
298
298
302.3672826
316.0811295
353.2954769
330.2615663
306.7839344
298.700371
304.0471146
310.0290743
307.5006057
298.0274886
324.2305352
298
298
298.1486239
316.5934836
352.2661319
298.964493
298
298
298
303.4026986
315.0293037
356.7512777
331.5545762
320.9740983
349.5483845
330.0230168
330.9455002
323.2803903
304.9564686
298
298
301.8377118
338.5926897
398.6737975
343.9435418
306.1182567
298.7808496
328.7181756
298
298
303.4762921
375.6191795
341.1836459
354.1773499
329.7157775
346.2746715
365.057251
352.6627051
323.4652341
339.7020989
309.8187319
351.9937049
388.7906307
421.7884927
376.9273965
329.9650465
315.6794871
298.2290446
298
299.6250775
307.3226224
353.1850014
330.5914124
298
349.2995457
314.2401763
351.3614747
365.2978609
345.3823638
306.8419358
337.5652076
340.9155847
333.4829402
346.4847515
362.6077187
348.0289394
330.0664881
315.1777942
313.6597851
326.9146253
342.2376843
344.3875872
321.5217795
298
298
298
323.1007609
330.5548098
311.4617367
298
337.4546215
298
298
298
315.4029492
352.6657642
362.0951955
343.3255076
343.6007142
352.5114385
314.3677833
339.5449748
308.059653
298
335.1083051
298
336.9781021
303.235221
298
328.9752269
298
298
298
298
298
322.8314304
359.0165093
385.5246251
404.1882669
353.2206082
298
344.5043043
298.3859408
298
298
298
298
298
298
298
298
298
298
298
336.8904365
298
353.3486762
360.5674741
396.5173829
298
339.9357816
313.9471917
328.8200893
298
323.3035195
298
298
298
298
298.1128316
298
298
298
298
298
298
298
326.6837062
351.2029973
298
298
298
298
298
298
298
298
298
316.863558
299.1794843
316.5891015
298
298
298
298
298
336.2998042
298
298
298
298
328.9101186
298
298
321.921514
298
320.1678332
298
298
298.2355419
298
298
298
298
298
298
298
298
339.8136674
298
338.3082267
298
330.1166738
298
298
298
298
298
298
298
321.1854071
298
298
298
298
301.609372
315.9509434
333.2078457
312.7003645
308.5282816
375.0337261
312.9578063
298
298
331.0901355
298
298
298
298
298
298
298
298
298
304.3759519
312.3117425
339.8774367
330.4398513
335.2031084
348.5233565
339.1233732
353.0894261
315.1865071
298
298
298.3538912
298.0495118
298
298
298
299.8132917
334.8003645
329.6871688
322.7670957
319.0051249
313.8606241
309.9026939
308.7359772