/*--------------------------------*- C++ -*----------------------------------*\
  =========                 |
  \\      /  F ield         | OpenFOAM: The Open Source CFD Toolbox
   \\    /   O peration     | Website:  https://openfoam.org
    \\  /    A nd           | Version:  7
     \\/     M anipulation  |
\*---------------------------------------------------------------------------*/
FoamFile
{
    version     2.0;
    format      ascii;
    class       volVectorField;
    location    "60";
    object      U;
}
// * * * * * * * * * * * * * * * * * * * * * * * * * * * * * * * * * * * * * //

dimensions      [0 1 -1 0 0 0 0];

internalField   uniform (0 0 0.2);

boundaryField
{
    walls
    {
        type            noSlip;
    }
    inlet
    {
        type            interstitialInletVelocity;
        inletVelocity   uniform (0 0 0.04082);
        value           nonuniform List<vector> 
1360
(
(0 0 0.2683252435)
(0 0 0.2573204441)
(0 0 0.2687415181)
(0 0 0.2894106637)
(0 0 0.3059595241)
(0 0 0.3057136248)
(0 0 0.2858443224)
(0 0 0.2642064547)
(0 0 0.246921603)
(0 0 0.235563782)
(0 0 0.229066929)
(0 0 0.2245274616)
(0 0 0.2223939895)
(0 0 0.2209912862)
(0 0 0.2172856326)
(0 0 0.2125121206)
(0 0 0.2128806391)
(0 0 0.2218915379)
(0 0 0.2410058079)
(0 0 0.2746326299)
(0 0 0.2266168029)
(0 0 0.2182867716)
(0 0 0.2234534821)
(0 0 0.2354548366)
(0 0 0.2485357678)
(0 0 0.2523828926)
(0 0 0.2413497121)
(0 0 0.2276575131)
(0 0 0.2172006901)
(0 0 0.212526938)
(0 0 0.2120086624)
(0 0 0.2125000047)
(0 0 0.211993206)
(0 0 0.2094091477)
(0 0 0.2061416127)
(0 0 0.2023487208)
(0 0 0.2042060163)
(0 0 0.2138372946)
(0 0 0.2319613586)
(0 0 0.257210536)
(0 0 0.1997937352)
(0 0 0.1928027061)
(0 0 0.1956768207)
(0 0 0.2043602092)
(0 0 0.216355969)
(0 0 0.223350977)
(0 0 0.2171421073)
(0 0 0.2073328144)
(0 0 0.2003708594)
(0 0 0.1988429007)
(0 0 0.2013624914)
(0 0 0.2054380252)
(0 0 0.2076390523)
(0 0 0.2057200638)
(0 0 0.2041321099)
(0 0 0.2025609045)
(0 0 0.2059323067)
(0 0 0.2159911438)
(0 0 0.2321684435)
(0 0 0.2502195417)
(0 0 0.1844356761)
(0 0 0.1775423897)
(0 0 0.1795071265)
(0 0 0.1875871881)
(0 0 0.1997028188)
(0 0 0.2074076084)
(0 0 0.2033242297)
(0 0 0.1961378419)
(0 0 0.1908829715)
(0 0 0.1898407735)
(0 0 0.1927642898)
(0 0 0.1960295172)
(0 0 0.1992500302)
(0 0 0.2008456269)
(0 0 0.2029935021)
(0 0 0.2044909036)
(0 0 0.2089945413)
(0 0 0.219220273)
(0 0 0.2317822813)
(0 0 0.2428854255)
(0 0 0.1778893521)
(0 0 0.1712984025)
(0 0 0.1740828701)
(0 0 0.1831941323)
(0 0 0.1950623223)
(0 0 0.2004801614)
(0 0 0.1950470387)
(0 0 0.1881956857)
(0 0 0.1843747565)
(0 0 0.1844914353)
(0 0 0.1874281698)
(0 0 0.188271677)
(0 0 0.1899881457)
(0 0 0.1937450791)
(0 0 0.1981957389)
(0 0 0.2025391155)
(0 0 0.208878226)
(0 0 0.2187326078)
(0 0 0.2273668693)
(0 0 0.2328597592)
(0 0 0.1793942192)
(0 0 0.1732271024)
(0 0 0.1763434768)
(0 0 0.1860738959)
(0 0 0.1954195732)
(0 0 0.1963142893)
(0 0 0.1889335005)
(0 0 0.1824589314)
(0 0 0.1797547498)
(0 0 0.1819116063)
(0 0 0.1854449488)
(0 0 0.1850784022)
(0 0 0.1847310809)
(0 0 0.187294768)
(0 0 0.1913049984)
(0 0 0.1962413264)
(0 0 0.2037581659)
(0 0 0.2117551733)
(0 0 0.2174311641)
(0 0 0.2217302724)
(0 0 0.1874460339)
(0 0 0.181505438)
(0 0 0.1840632387)
(0 0 0.1930738529)
(0 0 0.1992881018)
(0 0 0.195883064)
(0 0 0.1866160823)
(0 0 0.1802126592)
(0 0 0.1787243987)
(0 0 0.1826266612)
(0 0 0.1863057249)
(0 0 0.1849581027)
(0 0 0.1822645777)
(0 0 0.1810645019)
(0 0 0.1834813942)
(0 0 0.1887337524)
(0 0 0.1962313683)
(0 0 0.2019753602)
(0 0 0.2053352296)
(0 0 0.2118081654)
(0 0 0.2004731768)
(0 0 0.1918958613)
(0 0 0.1918303057)
(0 0 0.1978765457)
(0 0 0.2015013752)
(0 0 0.1973745677)
(0 0 0.1879218897)
(0 0 0.1819445255)
(0 0 0.180238035)
(0 0 0.1840950799)
(0 0 0.1881475879)
(0 0 0.1868532132)
(0 0 0.1820891428)
(0 0 0.1771242008)
(0 0 0.1770712013)
(0 0 0.1822035281)
(0 0 0.1884027123)
(0 0 0.1933441547)
(0 0 0.1975760928)
(0 0 0.2085220661)
(0 0 0.2185070876)
(0 0 0.204466626)
(0 0 0.1989149128)
(0 0 0.200401734)
(0 0 0.2014061242)
(0 0 0.1985378196)
(0 0 0.191288405)
(0 0 0.1871624392)
(0 0 0.1870726776)
(0 0 0.191429021)
(0 0 0.1959035769)
(0 0 0.1923417916)
(0 0 0.1838309017)
(0 0 0.1762699561)
(0 0 0.1742484255)
(0 0 0.1784224425)
(0 0 0.1830100821)
(0 0 0.1876578881)
(0 0 0.194267063)
(0 0 0.2097543509)
(0 0 0.2384839165)
(0 0 0.219214331)
(0 0 0.2073326381)
(0 0 0.2034359325)
(0 0 0.2014043308)
(0 0 0.1992457386)
(0 0 0.194735258)
(0 0 0.194500878)
(0 0 0.2000297682)
(0 0 0.2073661242)
(0 0 0.2117360366)
(0 0 0.2031372854)
(0 0 0.1880126927)
(0 0 0.1768828523)
(0 0 0.1729522803)
(0 0 0.1755582188)
(0 0 0.1798227934)
(0 0 0.1855527183)
(0 0 0.1942863875)
(0 0 0.2128341683)
(0 0 0.2570985258)
(0 0 0.2342434025)
(0 0 0.2185150717)
(0 0 0.2098557541)
(0 0 0.202114921)
(0 0 0.1971389968)
(0 0 0.1933660617)
(0 0 0.1975735851)
(0 0 0.2113398804)
(0 0 0.2265533107)
(0 0 0.2333319423)
(0 0 0.2189915598)
(0 0 0.1970769738)
(0 0 0.1817403957)
(0 0 0.1747753183)
(0 0 0.175270364)
(0 0 0.1795923643)
(0 0 0.1853511783)
(0 0 0.1937513984)
(0 0 0.2100202365)
(0 0 0.2677985557)
(0 0 0.2454649608)
(0 0 0.2291696472)
(0 0 0.2178032627)
(0 0 0.2052123124)
(0 0 0.1968253234)
(0 0 0.1926623905)
(0 0 0.1988305101)
(0 0 0.2173135874)
(0 0 0.2403187909)
(0 0 0.2539148596)
(0 0 0.2381815517)
(0 0 0.2107298875)
(0 0 0.1917463938)
(0 0 0.1826897925)
(0 0 0.1812887605)
(0 0 0.1838117925)
(0 0 0.1869767006)
(0 0 0.1916936868)
(0 0 0.2025828982)
(0 0 0.265626439)
(0 0 0.2479074059)
(0 0 0.2360323357)
(0 0 0.2256370272)
(0 0 0.2100934494)
(0 0 0.1982429937)
(0 0 0.1936121733)
(0 0 0.1998091949)
(0 0 0.2195463843)
(0 0 0.2458659488)
(0 0 0.2676791097)
(0 0 0.2564107915)
(0 0 0.2285901989)
(0 0 0.2081490036)
(0 0 0.1971445215)
(0 0 0.1932105807)
(0 0 0.1911956537)
(0 0 0.1896050598)
(0 0 0.1893620972)
(0 0 0.196465327)
(0 0 0.2540125636)
(0 0 0.2423017482)
(0 0 0.2359466235)
(0 0 0.2286827846)
(0 0 0.2133037417)
(0 0 0.1991272346)
(0 0 0.1935587563)
(0 0 0.1986321879)
(0 0 0.2164011995)
(0 0 0.2412753696)
(0 0 0.2672387057)
(0 0 0.2657762261)
(0 0 0.2438748638)
(0 0 0.2255245935)
(0 0 0.2140664775)
(0 0 0.2077799849)
(0 0 0.2015223734)
(0 0 0.1955038157)
(0 0 0.1911031339)
(0 0 0.1956668991)
(0 0 0.2429393889)
(0 0 0.2332071596)
(0 0 0.2303396706)
(0 0 0.2255795585)
(0 0 0.2124631319)
(0 0 0.1994144926)
(0 0 0.1934884852)
(0 0 0.1954999275)
(0 0 0.2083876893)
(0 0 0.2259199524)
(0 0 0.2456804375)
(0 0 0.2534730435)
(0 0 0.2466783008)
(0 0 0.236483584)
(0 0 0.2249051833)
(0 0 0.2152590524)
(0 0 0.206270304)
(0 0 0.1976807328)
(0 0 0.1917457811)
(0 0 0.1948283584)
(0 0 0.2368364673)
(0 0 0.2265179986)
(0 0 0.2231297702)
(0 0 0.2183637897)
(0 0 0.2084085105)
(0 0 0.1976076102)
(0 0 0.1915144225)
(0 0 0.1905341092)
(0 0 0.1978532774)
(0 0 0.2074370286)
(0 0 0.2179596062)
(0 0 0.2271191765)
(0 0 0.231739346)
(0 0 0.2315383837)
(0 0 0.2231330044)
(0 0 0.2118857144)
(0 0 0.2025171118)
(0 0 0.1947244123)
(0 0 0.1900930032)
(0 0 0.1931568419)
(0 0 0.2335616246)
(0 0 0.2219658578)
(0 0 0.2175675007)
(0 0 0.21191407)
(0 0 0.2040720202)
(0 0 0.1956041705)
(0 0 0.1894389289)
(0 0 0.1860131136)
(0 0 0.1884362501)
(0 0 0.192182697)
(0 0 0.1974547701)
(0 0 0.2049416708)
(0 0 0.2116128431)
(0 0 0.215459821)
(0 0 0.2113952739)
(0 0 0.2038613467)
(0 0 0.198361422)
(0 0 0.194007814)
(0 0 0.1918042719)
(0 0 0.195145074)
(0 0 0.230650062)
(0 0 0.2192167015)
(0 0 0.2151701629)
(0 0 0.2101789674)
(0 0 0.2033538615)
(0 0 0.1949394182)
(0 0 0.1877720346)
(0 0 0.1829023374)
(0 0 0.1821885481)
(0 0 0.1834391774)
(0 0 0.1864917865)
(0 0 0.1921539574)
(0 0 0.1969930668)
(0 0 0.1993346048)
(0 0 0.1980580135)
(0 0 0.1955389354)
(0 0 0.1955984781)
(0 0 0.196001389)
(0 0 0.196579089)
(0 0 0.2008707404)
(0 0 0.229423557)
(0 0 0.2197834776)
(0 0 0.2171732621)
(0 0 0.2124516654)
(0 0 0.2055604862)
(0 0 0.1974732022)
(0 0 0.1905611457)
(0 0 0.1859322076)
(0 0 0.1841877419)
(0 0 0.1854336336)
(0 0 0.189463843)
(0 0 0.1945075837)
(0 0 0.1950782258)
(0 0 0.1922928274)
(0 0 0.1914646796)
(0 0 0.1941613279)
(0 0 0.2002285976)
(0 0 0.205022926)
(0 0 0.2081590372)
(0 0 0.2144474698)
(0 0 0.2382341246)
(0 0 0.2260439472)
(0 0 0.2232978904)
(0 0 0.2196407171)
(0 0 0.2139927635)
(0 0 0.208033614)
(0 0 0.2047594647)
(0 0 0.2032517793)
(0 0 0.2037752427)
(0 0 0.2065615973)
(0 0 0.2118095731)
(0 0 0.2150063722)
(0 0 0.2094356477)
(0 0 0.2020777782)
(0 0 0.2016393085)
(0 0 0.2070295913)
(0 0 0.2154377286)
(0 0 0.2213008912)
(0 0 0.226534672)
(0 0 0.2376645547)
(0 0 0.4082)
(0 0 0.4082)
(0 0 0.4082)
(0 0 0.4082)
(0 0 0.4082)
(0 0 0.4082)
(0 0 0.3856820184)
(0 0 0.3583771789)
(0 0 0.3450448749)
(0 0 0.3395472336)
(0 0 0.3483088077)
(0 0 0.3584105219)
(0 0 0.3568092313)
(0 0 0.3726404055)
(0 0 0.4082)
(0 0 0.4082)
(0 0 0.4082)
(0 0 0.4082)
(0 0 0.4082)
(0 0 0.4082)
(0 0 0.4082)
(0 0 0.4082)
(0 0 0.4082)
(0 0 0.4082)
(0 0 0.3525865133)
(0 0 0.3170762493)
(0 0 0.3031898704)
(0 0 0.3020797843)
(0 0 0.3006671151)
(0 0 0.2943914353)
(0 0 0.2933164798)
(0 0 0.2930537036)
(0 0 0.2894085198)
(0 0 0.3010383638)
(0 0 0.3429923936)
(0 0 0.4080844256)
(0 0 0.4082)
(0 0 0.4082)
(0 0 0.4082)
(0 0 0.4082)
(0 0 0.4082)
(0 0 0.4082)
(0 0 0.3426012202)
(0 0 0.2860075841)
(0 0 0.2749341877)
(0 0 0.2702883622)
(0 0 0.2695373496)
(0 0 0.2771187282)
(0 0 0.2844547164)
(0 0 0.2810275434)
(0 0 0.2745450383)
(0 0 0.2677234217)
(0 0 0.2648008437)
(0 0 0.2783840563)
(0 0 0.3093601855)
(0 0 0.3350580242)
(0 0 0.3754427653)
(0 0 0.4082)
(0 0 0.4082)
(0 0 0.4082)
(0 0 0.4082)
(0 0 0.3447319524)
(0 0 0.2615160447)
(0 0 0.2341087429)
(0 0 0.2373531322)
(0 0 0.2451095234)
(0 0 0.2458404605)
(0 0 0.2517111647)
(0 0 0.2659754969)
(0 0 0.2739479404)
(0 0 0.2689212025)
(0 0 0.2577436226)
(0 0 0.254357635)
(0 0 0.2688773284)
(0 0 0.2913809514)
(0 0 0.2958955988)
(0 0 0.3025549773)
(0 0 0.3397686901)
(0 0 0.4082)
(0 0 0.4082)
(0 0 0.4082)
(0 0 0.2714338853)
(0 0 0.2242225277)
(0 0 0.2060101519)
(0 0 0.2117952327)
(0 0 0.2239207189)
(0 0 0.2227429793)
(0 0 0.2231020944)
(0 0 0.2393290947)
(0 0 0.2591408885)
(0 0 0.2613817887)
(0 0 0.2467093435)
(0 0 0.2412560533)
(0 0 0.2549437896)
(0 0 0.2690952105)
(0 0 0.2629951028)
(0 0 0.2591209758)
(0 0 0.2763389049)
(0 0 0.340661549)
(0 0 0.4082)
(0 0 0.328797886)
(0 0 0.2317588356)
(0 0 0.2017496092)
(0 0 0.1875082273)
(0 0 0.1925805729)
(0 0 0.2048944864)
(0 0 0.201099178)
(0 0 0.1973314402)
(0 0 0.2119782103)
(0 0 0.2364221809)
(0 0 0.2443968119)
(0 0 0.2302192698)
(0 0 0.2232458584)
(0 0 0.2358792022)
(0 0 0.2405506576)
(0 0 0.2316789728)
(0 0 0.22874229)
(0 0 0.2389778366)
(0 0 0.2809725317)
(0 0 0.3957400176)
(0 0 0.2638817395)
(0 0 0.2043699882)
(0 0 0.1846423288)
(0 0 0.1733591427)
(0 0 0.1786182927)
(0 0 0.1892593267)
(0 0 0.1836927346)
(0 0 0.1774896492)
(0 0 0.1888534679)
(0 0 0.2120439222)
(0 0 0.2198426281)
(0 0 0.2087395724)
(0 0 0.2036359968)
(0 0 0.2138340866)
(0 0 0.2105776896)
(0 0 0.2041169557)
(0 0 0.2040792266)
(0 0 0.2122195621)
(0 0 0.2423861158)
(0 0 0.3111653621)
(0 0 0.2214730912)
(0 0 0.1812917276)
(0 0 0.1680433119)
(0 0 0.1607203907)
(0 0 0.1678263883)
(0 0 0.1766386377)
(0 0 0.1706145107)
(0 0 0.1660526815)
(0 0 0.1771352197)
(0 0 0.1962872151)
(0 0 0.1985247683)
(0 0 0.1858073688)
(0 0 0.1823852481)
(0 0 0.1882887396)
(0 0 0.1810455016)
(0 0 0.1797680625)
(0 0 0.1815128518)
(0 0 0.1897065358)
(0 0 0.2133336935)
(0 0 0.2561992283)
(0 0 0.1907602417)
(0 0 0.160659661)
(0 0 0.1508003165)
(0 0 0.1468755662)
(0 0 0.1564870295)
(0 0 0.1650474154)
(0 0 0.1607158063)
(0 0 0.1605936144)
(0 0 0.173293651)
(0 0 0.1837976702)
(0 0 0.1794462204)
(0 0 0.1635246103)
(0 0 0.1591661354)
(0 0 0.1611294714)
(0 0 0.1541215982)
(0 0 0.1576740519)
(0 0 0.1608736504)
(0 0 0.1699626398)
(0 0 0.188736403)
(0 0 0.2148301205)
(0 0 0.1669381589)
(0 0 0.1430200792)
(0 0 0.1342192664)
(0 0 0.131473671)
(0 0 0.1430174866)
(0 0 0.153060397)
(0 0 0.1512593837)
(0 0 0.1556301352)
(0 0 0.1680708553)
(0 0 0.1677684482)
(0 0 0.1604246837)
(0 0 0.1431362189)
(0 0 0.1365139022)
(0 0 0.1357080697)
(0 0 0.1310794023)
(0 0 0.1377221479)
(0 0 0.1420451857)
(0 0 0.1520267869)
(0 0 0.1664463016)
(0 0 0.1822840445)
(0 0 0.1477212844)
(0 0 0.1285204339)
(0 0 0.1201580731)
(0 0 0.1172685169)
(0 0 0.1289401563)
(0 0 0.1389999369)
(0 0 0.1383926715)
(0 0 0.1446869431)
(0 0 0.1529854713)
(0 0 0.146071682)
(0 0 0.1395477551)
(0 0 0.124849174)
(0 0 0.1181103109)
(0 0 0.116147279)
(0 0 0.1137581254)
(0 0 0.121550315)
(0 0 0.1263635479)
(0 0 0.1363571036)
(0 0 0.1473043516)
(0 0 0.1573319429)
(0 0 0.1324264628)
(0 0 0.1170804995)
(0 0 0.1095641898)
(0 0 0.1066727108)
(0 0 0.1168811518)
(0 0 0.1254500928)
(0 0 0.1250534476)
(0 0 0.130717034)
(0 0 0.135583075)
(0 0 0.1278420323)
(0 0 0.1226583731)
(0 0 0.1112350474)
(0 0 0.1055267021)
(0 0 0.1035736991)
(0 0 0.1024391987)
(0 0 0.109847215)
(0 0 0.1144903438)
(0 0 0.1235101005)
(0 0 0.1320192554)
(0 0 0.1389586431)
(0 0 0.4082)
(0 0 0.4082)
(0 0 0.4082)
(0 0 0.4082)
(0 0 0.4082)
(0 0 0.3759776906)
(0 0 0.3304224629)
(0 0 0.3012631724)
(0 0 0.2975791937)
(0 0 0.3124393843)
(0 0 0.3224200789)
(0 0 0.3169654868)
(0 0 0.3186094838)
(0 0 0.3425527016)
(0 0 0.4082)
(0 0 0.4082)
(0 0 0.4082)
(0 0 0.4082)
(0 0 0.4082)
(0 0 0.4082)
(0 0 0.4082)
(0 0 0.4082)
(0 0 0.4082)
(0 0 0.362455568)
(0 0 0.3044873095)
(0 0 0.2799347186)
(0 0 0.2617615376)
(0 0 0.2446800908)
(0 0 0.2393044669)
(0 0 0.2501207888)
(0 0 0.2586532058)
(0 0 0.2515097874)
(0 0 0.2424963589)
(0 0 0.2428732912)
(0 0 0.2634107658)
(0 0 0.3205220864)
(0 0 0.4082)
(0 0 0.4082)
(0 0 0.4082)
(0 0 0.4082)
(0 0 0.4082)
(0 0 0.4082)
(0 0 0.3420749153)
(0 0 0.2802812593)
(0 0 0.2544931339)
(0 0 0.2448893175)
(0 0 0.2371513533)
(0 0 0.2230446526)
(0 0 0.2137131843)
(0 0 0.2228835857)
(0 0 0.2320678337)
(0 0 0.224916968)
(0 0 0.2116131122)
(0 0 0.205369328)
(0 0 0.2116222877)
(0 0 0.2396541719)
(0 0 0.2970946956)
(0 0 0.4082)
(0 0 0.4082)
(0 0 0.4082)
(0 0 0.4082)
(0 0 0.3763251541)
(0 0 0.2790439905)
(0 0 0.2500057155)
(0 0 0.2364192676)
(0 0 0.2335798361)
(0 0 0.2286018926)
(0 0 0.213077055)
(0 0 0.2004344426)
(0 0 0.2097026289)
(0 0 0.2209143075)
(0 0 0.2132160844)
(0 0 0.1995867332)
(0 0 0.191293914)
(0 0 0.1904127324)
(0 0 0.2063905092)
(0 0 0.2411251749)
(0 0 0.2951921158)
(0 0 0.4060479752)
(0 0 0.4082)
(0 0 0.4082)
(0 0 0.3048693903)
(0 0 0.2488219993)
(0 0 0.2365056413)
(0 0 0.2302371179)
(0 0 0.2326507071)
(0 0 0.225358063)
(0 0 0.2076200751)
(0 0 0.1940702788)
(0 0 0.2040953428)
(0 0 0.2138128722)
(0 0 0.2034560285)
(0 0 0.1944287268)
(0 0 0.1873714241)
(0 0 0.1818534667)
(0 0 0.1903587904)
(0 0 0.2162310316)
(0 0 0.2503019148)
(0 0 0.3061821535)
(0 0 0.4082)
(0 0 0.384358506)
(0 0 0.2634524624)
(0 0 0.228171701)
(0 0 0.227100734)
(0 0 0.2272193836)
(0 0 0.2335252077)
(0 0 0.2214092896)
(0 0 0.2031562396)
(0 0 0.1914221733)
(0 0 0.2011993625)
(0 0 0.2051787649)
(0 0 0.1923947733)
(0 0 0.1912276064)
(0 0 0.1891525956)
(0 0 0.1805716263)
(0 0 0.1815224528)
(0 0 0.2024650734)
(0 0 0.2286389496)
(0 0 0.2634281661)
(0 0 0.3579391397)
(0 0 0.308546862)
(0 0 0.231284004)
(0 0 0.2091960053)
(0 0 0.2164696615)
(0 0 0.2206178967)
(0 0 0.2283197533)
(0 0 0.2124024061)
(0 0 0.1993733157)
(0 0 0.1915931468)
(0 0 0.2002938653)
(0 0 0.1973804052)
(0 0 0.183950547)
(0 0 0.188974834)
(0 0 0.1918644794)
(0 0 0.1825623493)
(0 0 0.1754406843)
(0 0 0.1905562148)
(0 0 0.2130967207)
(0 0 0.2390458682)
(0 0 0.2927762401)
(0 0 0.2572339917)
(0 0 0.2025450018)
(0 0 0.1896583572)
(0 0 0.2017955627)
(0 0 0.2059855667)
(0 0 0.2152166304)
(0 0 0.2014552263)
(0 0 0.1974253401)
(0 0 0.1933062348)
(0 0 0.2010075955)
(0 0 0.1913365535)
(0 0 0.1806839837)
(0 0 0.1884823956)
(0 0 0.1909917956)
(0 0 0.1823629914)
(0 0 0.1686780974)
(0 0 0.1772670383)
(0 0 0.1967693791)
(0 0 0.2196597073)
(0 0 0.2488112883)
(0 0 0.2177914895)
(0 0 0.1768115712)
(0 0 0.1691651849)
(0 0 0.182071237)
(0 0 0.1839809431)
(0 0 0.193286944)
(0 0 0.1866622484)
(0 0 0.1915513576)
(0 0 0.1893574475)
(0 0 0.1968715913)
(0 0 0.1845598735)
(0 0 0.1799222461)
(0 0 0.1855943806)
(0 0 0.1814669186)
(0 0 0.1745874199)
(0 0 0.1582006967)
(0 0 0.1612237438)
(0 0 0.1779688034)
(0 0 0.1994752613)
(0 0 0.2135973575)
(0 0 0.185735102)
(0 0 0.1543694355)
(0 0 0.1488056347)
(0 0 0.1598764653)
(0 0 0.159267184)
(0 0 0.1665176125)
(0 0 0.1666825133)
(0 0 0.1779594842)
(0 0 0.1768917424)
(0 0 0.1842415488)
(0 0 0.1722963615)
(0 0 0.1743551121)
(0 0 0.1762236989)
(0 0 0.1646694545)
(0 0 0.1594232294)
(0 0 0.1439058695)
(0 0 0.1439578141)
(0 0 0.1579569469)
(0 0 0.1774347707)
(0 0 0.1838475175)
(0 0 0.1605402101)
(0 0 0.1361891156)
(0 0 0.1313143493)
(0 0 0.1395301826)
(0 0 0.1377445004)
(0 0 0.1424660993)
(0 0 0.144137877)
(0 0 0.1557179104)
(0 0 0.1555151197)
(0 0 0.160879056)
(0 0 0.1515693949)
(0 0 0.1574816029)
(0 0 0.1577025194)
(0 0 0.1448536819)
(0 0 0.1407685845)
(0 0 0.128157634)
(0 0 0.1279108059)
(0 0 0.1392801761)
(0 0 0.1564593363)
(0 0 0.1596424362)
(0 0 0.1416355057)
(0 0 0.1225591619)
(0 0 0.1183010514)
(0 0 0.1242522625)
(0 0 0.1222227356)
(0 0 0.1252062934)
(0 0 0.126555251)
(0 0 0.1356997649)
(0 0 0.135750236)
(0 0 0.1392921512)
(0 0 0.1326643036)
(0 0 0.1386541998)
(0 0 0.1387190996)
(0 0 0.1281443752)
(0 0 0.1250676985)
(0 0 0.1154192038)
(0 0 0.1154929344)
(0 0 0.1248004067)
(0 0 0.1392175719)
(0 0 0.1410762315)
(0 0 0.4082)
(0 0 0.4082)
(0 0 0.4082)
(0 0 0.4082)
(0 0 0.4082)
(0 0 0.4082)
(0 0 0.3931594979)
(0 0 0.3399163818)
(0 0 0.3163552383)
(0 0 0.3238960348)
(0 0 0.3564704125)
(0 0 0.4082)
(0 0 0.4082)
(0 0 0.4082)
(0 0 0.4082)
(0 0 0.4082)
(0 0 0.4082)
(0 0 0.4082)
(0 0 0.4082)
(0 0 0.4082)
(0 0 0.4082)
(0 0 0.4082)
(0 0 0.4082)
(0 0 0.4082)
(0 0 0.3680531662)
(0 0 0.3165411143)
(0 0 0.2802166907)
(0 0 0.2484111058)
(0 0 0.230463293)
(0 0 0.2346615745)
(0 0 0.2577809959)
(0 0 0.3087400734)
(0 0 0.3800202296)
(0 0 0.4082)
(0 0 0.4082)
(0 0 0.4082)
(0 0 0.4082)
(0 0 0.4082)
(0 0 0.4082)
(0 0 0.4082)
(0 0 0.4082)
(0 0 0.4082)
(0 0 0.4082)
(0 0 0.3348252866)
(0 0 0.2853034023)
(0 0 0.2582012184)
(0 0 0.236518466)
(0 0 0.2131712475)
(0 0 0.1962914157)
(0 0 0.1967162904)
(0 0 0.2141406845)
(0 0 0.2533899211)
(0 0 0.2981398209)
(0 0 0.3526603466)
(0 0 0.4082)
(0 0 0.4082)
(0 0 0.4082)
(0 0 0.4082)
(0 0 0.4082)
(0 0 0.4082)
(0 0 0.4082)
(0 0 0.4082)
(0 0 0.3301225006)
(0 0 0.2775934743)
(0 0 0.2443554623)
(0 0 0.2271559991)
(0 0 0.213123911)
(0 0 0.1963639607)
(0 0 0.18105059)
(0 0 0.1776017318)
(0 0 0.1905332712)
(0 0 0.2219268323)
(0 0 0.2514902216)
(0 0 0.2791299563)
(0 0 0.3278435313)
(0 0 0.3806780789)
(0 0 0.4078177508)
(0 0 0.4082)
(0 0 0.4082)
(0 0 0.4082)
(0 0 0.4082)
(0 0 0.324828678)
(0 0 0.2776994365)
(0 0 0.2474609369)
(0 0 0.2193962599)
(0 0 0.2067458516)
(0 0 0.1990727762)
(0 0 0.1889166744)
(0 0 0.175056713)
(0 0 0.1677060246)
(0 0 0.176452178)
(0 0 0.2013798131)
(0 0 0.221464154)
(0 0 0.2332128031)
(0 0 0.2588821534)
(0 0 0.2937310043)
(0 0 0.3198091762)
(0 0 0.3258112321)
(0 0 0.3763814578)
(0 0 0.4082)
(0 0 0.3521197536)
(0 0 0.2663769015)
(0 0 0.2452809599)
(0 0 0.2275844327)
(0 0 0.2018877388)
(0 0 0.1912466914)
(0 0 0.1890752171)
(0 0 0.1858105849)
(0 0 0.172201738)
(0 0 0.1625342251)
(0 0 0.1693196487)
(0 0 0.1883863656)
(0 0 0.2010414953)
(0 0 0.204042008)
(0 0 0.2190888581)
(0 0 0.2440241291)
(0 0 0.2722590217)
(0 0 0.2762818877)
(0 0 0.2961631108)
(0 0 0.4082)
(0 0 0.2792610259)
(0 0 0.2263725644)
(0 0 0.2192238867)
(0 0 0.2115299701)
(0 0 0.189979358)
(0 0 0.1812859065)
(0 0 0.1824601938)
(0 0 0.1842596246)
(0 0 0.1706905008)
(0 0 0.1618883083)
(0 0 0.1681195862)
(0 0 0.1813716335)
(0 0 0.1877044142)
(0 0 0.1860102868)
(0 0 0.1981499132)
(0 0 0.2144108572)
(0 0 0.2395274011)
(0 0 0.2428505342)
(0 0 0.2488129618)
(0 0 0.3186891667)
(0 0 0.2315752026)
(0 0 0.1941906498)
(0 0 0.1947242113)
(0 0 0.1941096547)
(0 0 0.1796191181)
(0 0 0.1750449783)
(0 0 0.1765524549)
(0 0 0.1811292605)
(0 0 0.169056643)
(0 0 0.1636060117)
(0 0 0.1692702054)
(0 0 0.1790656271)
(0 0 0.1797974533)
(0 0 0.1752695487)
(0 0 0.1866315689)
(0 0 0.1928784256)
(0 0 0.2095463082)
(0 0 0.2111917391)
(0 0 0.2140225169)
(0 0 0.2517486515)
(0 0 0.1957593547)
(0 0 0.1669556179)
(0 0 0.1716390244)
(0 0 0.1746168009)
(0 0 0.1662634979)
(0 0 0.1679745933)
(0 0 0.1689179458)
(0 0 0.1746171333)
(0 0 0.1665402747)
(0 0 0.1632636772)
(0 0 0.1669605312)
(0 0 0.1769086245)
(0 0 0.1736053981)
(0 0 0.165512958)
(0 0 0.1752599062)
(0 0 0.1728483839)
(0 0 0.180206591)
(0 0 0.1795197113)
(0 0 0.1851279073)
(0 0 0.208349438)
(0 0 0.1676244576)
(0 0 0.1445339527)
(0 0 0.1506806492)
(0 0 0.1543229904)
(0 0 0.1494876347)
(0 0 0.1558734212)
(0 0 0.1562728303)
(0 0 0.1618183082)
(0 0 0.1596135115)
(0 0 0.1566311213)
(0 0 0.158138819)
(0 0 0.1693081981)
(0 0 0.163611447)
(0 0 0.1518841058)
(0 0 0.1602319035)
(0 0 0.1528739042)
(0 0 0.1537280528)
(0 0 0.151130226)
(0 0 0.1605306753)
(0 0 0.1779210506)
(0 0 0.1460024323)
(0 0 0.127168418)
(0 0 0.1333515484)
(0 0 0.1363833304)
(0 0 0.1326705573)
(0 0 0.1395297326)
(0 0 0.1393445497)
(0 0 0.1448073444)
(0 0 0.146282864)
(0 0 0.1431147094)
(0 0 0.1422307657)
(0 0 0.1518754381)
(0 0 0.1465688428)
(0 0 0.1351877848)
(0 0 0.142040551)
(0 0 0.1346466993)
(0 0 0.1330076052)
(0 0 0.1295815627)
(0 0 0.1408592711)
(0 0 0.1554028216)
(0 0 0.1300708882)
(0 0 0.1148010109)
(0 0 0.1202348818)
(0 0 0.1224841972)
(0 0 0.1191947545)
(0 0 0.1247733456)
(0 0 0.1243511503)
(0 0 0.128881703)
(0 0 0.1310895947)
(0 0 0.1281421421)
(0 0 0.1264218666)
(0 0 0.1337513568)
(0 0 0.1298242896)
(0 0 0.1208520878)
(0 0 0.1263713013)
(0 0 0.1205642376)
(0 0 0.1186424708)
(0 0 0.1154587777)
(0 0 0.1262115973)
(0 0 0.1382511064)
(0 0 0.4082)
(0 0 0.4082)
(0 0 0.4082)
(0 0 0.4082)
(0 0 0.3739200337)
(0 0 0.3100707475)
(0 0 0.2890081027)
(0 0 0.2933868342)
(0 0 0.3175509649)
(0 0 0.3501812694)
(0 0 0.3901950765)
(0 0 0.4082)
(0 0 0.4082)
(0 0 0.4082)
(0 0 0.4082)
(0 0 0.4082)
(0 0 0.4082)
(0 0 0.4082)
(0 0 0.4082)
(0 0 0.4082)
(0 0 0.4082)
(0 0 0.4082)
(0 0 0.4082)
(0 0 0.33286695)
(0 0 0.2657485889)
(0 0 0.2342865311)
(0 0 0.2209956023)
(0 0 0.2252234907)
(0 0 0.2418681561)
(0 0 0.2592222899)
(0 0 0.2749908986)
(0 0 0.2906038134)
(0 0 0.2994808722)
(0 0 0.3086123643)
(0 0 0.351325852)
(0 0 0.4082)
(0 0 0.4082)
(0 0 0.4082)
(0 0 0.4082)
(0 0 0.4082)
(0 0 0.4082)
(0 0 0.4082)
(0 0 0.3504369811)
(0 0 0.2600622844)
(0 0 0.2243377681)
(0 0 0.2029179183)
(0 0 0.1918378757)
(0 0 0.1958973984)
(0 0 0.2111457217)
(0 0 0.2255997737)
(0 0 0.2333893129)
(0 0 0.238258881)
(0 0 0.239944555)
(0 0 0.2452498822)
(0 0 0.2750845935)
(0 0 0.337000312)
(0 0 0.4082)
(0 0 0.4082)
(0 0 0.4082)
(0 0 0.4082)
(0 0 0.4082)
(0 0 0.4082)
(0 0 0.2800489374)
(0 0 0.2305765013)
(0 0 0.2085925586)
(0 0 0.1904632776)
(0 0 0.178156316)
(0 0 0.179991507)
(0 0 0.1949319176)
(0 0 0.2091702722)
(0 0 0.2147475922)
(0 0 0.2152673793)
(0 0 0.2142404935)
(0 0 0.2179162014)
(0 0 0.240151502)
(0 0 0.2836222472)
(0 0 0.3369955063)
(0 0 0.3897345779)
(0 0 0.4082)
(0 0 0.4082)
(0 0 0.4082)
(0 0 0.3386739127)
(0 0 0.2444314351)
(0 0 0.2183732226)
(0 0 0.2055648265)
(0 0 0.1873599751)
(0 0 0.1723503354)
(0 0 0.1714778394)
(0 0 0.1850315157)
(0 0 0.1988757047)
(0 0 0.2036088178)
(0 0 0.2045109487)
(0 0 0.2028042658)
(0 0 0.2051134397)
(0 0 0.2193860984)
(0 0 0.2475309685)
(0 0 0.282153396)
(0 0 0.3151812495)
(0 0 0.3542404153)
(0 0 0.4082)
(0 0 0.4082)
(0 0 0.2697418953)
(0 0 0.2193845897)
(0 0 0.2110216881)
(0 0 0.2066804264)
(0 0 0.1884028733)
(0 0 0.1710003946)
(0 0 0.1683556555)
(0 0 0.1797555706)
(0 0 0.1906299702)
(0 0 0.1950205708)
(0 0 0.1989973625)
(0 0 0.1995104966)
(0 0 0.2013894958)
(0 0 0.2075124322)
(0 0 0.2218271028)
(0 0 0.2433162762)
(0 0 0.2672715395)
(0 0 0.2864354611)
(0 0 0.3700599325)
(0 0 0.3161604715)
(0 0 0.2218773259)
(0 0 0.1963456671)
(0 0 0.198958275)
(0 0 0.2007628918)
(0 0 0.1860707064)
(0 0 0.1692352613)
(0 0 0.1672379019)
(0 0 0.1767132875)
(0 0 0.1840234258)
(0 0 0.1890158871)
(0 0 0.195501043)
(0 0 0.1994440506)
(0 0 0.201764339)
(0 0 0.2004327963)
(0 0 0.2047285455)
(0 0 0.2155872738)
(0 0 0.2321822698)
(0 0 0.2417946274)
(0 0 0.2913545542)
(0 0 0.2436426793)
(0 0 0.1869385622)
(0 0 0.1742264212)
(0 0 0.1817549567)
(0 0 0.1858321619)
(0 0 0.1785784768)
(0 0 0.166210149)
(0 0 0.1668955808)
(0 0 0.1752228882)
(0 0 0.1793464499)
(0 0 0.1857950561)
(0 0 0.1934741523)
(0 0 0.2009652904)
(0 0 0.2042113864)
(0 0 0.1950520245)
(0 0 0.1928355255)
(0 0 0.1941642709)
(0 0 0.2045606483)
(0 0 0.2085653058)
(0 0 0.2422032381)
(0 0 0.1976253006)
(0 0 0.1606133166)
(0 0 0.1543713247)
(0 0 0.162927127)
(0 0 0.167933319)
(0 0 0.1685591339)
(0 0 0.1607625107)
(0 0 0.1634170604)
(0 0 0.1709709774)
(0 0 0.1748859248)
(0 0 0.1825752931)
(0 0 0.1883770147)
(0 0 0.2008710729)
(0 0 0.203303447)
(0 0 0.1882252934)
(0 0 0.1825341461)
(0 0 0.1758740917)
(0 0 0.1809015692)
(0 0 0.1812705342)
(0 0 0.2069501467)
(0 0 0.1666279353)
(0 0 0.1402687506)
(0 0 0.1371731779)
(0 0 0.1445600748)
(0 0 0.1492868658)
(0 0 0.1553568361)
(0 0 0.1515885186)
(0 0 0.1546568291)
(0 0 0.1610224893)
(0 0 0.1646089274)
(0 0 0.1721252543)
(0 0 0.1757998317)
(0 0 0.1912985497)
(0 0 0.1909000946)
(0 0 0.1747212781)
(0 0 0.1685145549)
(0 0 0.1577081282)
(0 0 0.158903741)
(0 0 0.1575664091)
(0 0 0.1788425585)
(0 0 0.1449205021)
(0 0 0.1247979057)
(0 0 0.1230639794)
(0 0 0.1285386827)
(0 0 0.1314899881)
(0 0 0.139114186)
(0 0 0.1381066432)
(0 0 0.1394312521)
(0 0 0.1434272694)
(0 0 0.1452309702)
(0 0 0.1516653301)
(0 0 0.1546387306)
(0 0 0.1686544103)
(0 0 0.1675872336)
(0 0 0.1547367976)
(0 0 0.1508173719)
(0 0 0.1404485393)
(0 0 0.1400919983)
(0 0 0.1383468902)
(0 0 0.1562433076)
(0 0 0.1293531879)
(0 0 0.113417481)
(0 0 0.1122156512)
(0 0 0.1161849653)
(0 0 0.1178253973)
(0 0 0.1245224016)
(0 0 0.1244060635)
(0 0 0.1244685995)
(0 0 0.126697859)
(0 0 0.1275044531)
(0 0 0.1324316273)
(0 0 0.1350656356)
(0 0 0.1460867648)
(0 0 0.1455659659)
(0 0 0.1366139241)
(0 0 0.1345173924)
(0 0 0.1262320845)
(0 0 0.1256379149)
(0 0 0.1240968588)
(0 0 0.1387206399)
)
;
    }
    outlet
    {
        type            inletOutlet;
        phi             alphaRhoPhi;
        inletValue      uniform (0 0 0);
        value           uniform (0 0 0);
    }
}


// ************************************************************************* //
