/*--------------------------------*- C++ -*----------------------------------*\
  =========                 |
  \\      /  F ield         | OpenFOAM: The Open Source CFD Toolbox
   \\    /   O peration     | Website:  https://openfoam.org
    \\  /    A nd           | Version:  7
     \\/     M anipulation  |
\*---------------------------------------------------------------------------*/
FoamFile
{
    version     2.0;
    format      ascii;
    class       volVectorField;
    location    "60";
    object      Uavg;
}
// * * * * * * * * * * * * * * * * * * * * * * * * * * * * * * * * * * * * * //

dimensions      [0 1 -1 0 0 0 0];

internalField   nonuniform List<vector> 
16320
(
(0.3114069591 0.2611149689 0.9207898172)
(0.01945403575 0.0260530639 0.9405061174)
(0.1119564784 0.2801899733 0.7453792029)
(-0.01897397495 0.003636869851 0.7957207955)
(0.006547576232 0.1743006316 0.6415281773)
(-0.02848895844 0.1056834264 0.622480369)
(-0.04321753204 0.06458501814 0.6197937216)
(-0.04482597468 0.04604396566 0.6392283865)
(-0.00143217348 -0.05718835454 0.6352691989)
(-0.01940532548 0.06780047406 0.7127802999)
(0.03066368754 -0.03676218714 0.6600264098)
(0.007993788379 0.1184414741 0.7763435059)
(0.0255804791 -0.01852689281 0.7888446549)
(0.009413376578 0.165164752 0.782543253)
(-0.009983075233 0.2025880245 0.7896916768)
(-0.03306795356 0.2268593772 0.804548659)
(-0.04426769961 0.2443105537 0.8109745487)
(-0.008060817273 -0.02634237906 0.934908035)
(-0.07670988312 0.2735685227 0.8410445104)
(-0.01428473468 -0.002713797772 1.022589551)
(0.2945981398 0.06958245249 0.8518821432)
(0.120598423 0.0396483178 0.7012186043)
(0.078890159 0.03297126699 0.6366697909)
(0.02602362005 0.01720621667 0.6003764277)
(-0.02607869901 -0.007449494552 0.5723290386)
(-0.05677609609 -0.0294870068 0.5643788724)
(-0.05435873716 -0.05068169142 0.634475528)
(-0.05429133363 -0.05025142431 0.5865708865)
(-0.02912039584 -0.04402767455 0.6084371445)
(0.02221065722 -0.05239620718 0.5858565134)
(0.02001576434 -0.002565665779 0.6814465996)
(0.04351024411 -0.03617459642 0.6921443671)
(0.02500223106 0.0196102155 0.7172967)
(0.007141988019 -0.03656028977 0.7873751925)
(-0.005384024695 0.005743936091 0.7104433236)
(-0.02245552916 -0.05702854561 0.8082421936)
(-0.01977732485 -0.02528758425 0.6941152422)
(-0.005174670197 -0.02384256491 0.7024710267)
(-0.01516690749 -0.002216867217 0.7383497861)
(-0.2660527524 0.06265672342 0.8322886234)
(0.02392387124 0.02616479074 0.966238792)
(0.1235347503 0.03593956883 0.6850207799)
(-0.01991468404 0.01592305005 0.7805195456)
(0.003451156343 0.006595463271 0.5794142038)
(-0.07040451366 -0.009283190325 0.6682134027)
(-0.07691226709 -0.0302686524 0.5462300261)
(-0.07658620258 -0.03953077735 0.5482454671)
(-0.05533410468 -0.03973797768 0.55945815)
(-0.01975235428 -0.03447459333 0.5683387088)
(0.01919789484 -0.02080559914 0.5947119434)
(0.03837847125 -0.005887781571 0.6333839148)
(0.03741087869 0.004489264508 0.6664166451)
(0.02440617451 0.004305187027 0.6841411149)
(0.003918415 -0.004628736165 0.6880693964)
(-0.02259603002 -0.02120260921 0.6812136217)
(-0.04066241568 -0.04181287726 0.6614414496)
(-0.01701325138 -0.0826116181 0.7405815232)
(0.01052457718 -0.05706759408 0.6417823573)
(0.02700060859 -0.06531166605 0.8230946914)
(-0.24404024 0.02298054203 0.7936439599)
(0.2614627778 0.02479460091 0.8709285933)
(0.1194966213 0.0239509119 0.7135099353)
(0.05250153948 0.01094258324 0.6369952078)
(-0.00915370282 0.001067971091 0.5850452312)
(-0.05510673122 -0.005154181459 0.5603109956)
(-0.07826150788 -0.006596878879 0.5508736401)
(-0.0741151906 -0.0002727506866 0.5865265859)
(-0.05004381741 -0.001477077186 0.5574840523)
(-0.0109414955 -0.006380970775 0.5333505405)
(0.02955159639 0.00933208228 0.5692213459)
(0.04416759483 -0.01141872649 0.5614101268)
(0.04094046183 0.01740556648 0.633887146)
(0.01760591589 -0.02602136341 0.6825309641)
(-0.01300320854 -0.0008453376565 0.6631992514)
(-0.0495929883 -0.0534076687 0.7009439375)
(-0.05807757352 -0.0439404355 0.6313941822)
(-0.0273371204 -0.06581631998 0.5971331067)
(0.02345895667 -0.06646746808 0.609342786)
(0.03834950284 -0.04480025017 0.6607645684)
(0.04201093884 -0.04131086839 0.838247175)
(0.2449788461 0.02618201247 0.8829318418)
(-1.101504087e-05 0.01117589553 0.8477967988)
(0.04800011802 0.01016194376 0.6543797691)
(-0.005045293934 0.009848850924 0.6070414935)
(-0.07655631692 0.01999121593 0.6610196767)
(-0.06564247554 0.03048375498 0.5750754018)
(-0.07378444973 0.02898104282 0.5928470626)
(-0.04816907115 0.05007383713 0.5676185831)
(-0.008268490254 0.0507396953 0.5443872796)
(0.03725696782 0.05328303312 0.5676395726)
(0.0501562324 0.04901105299 0.5889064447)
(0.03630248957 0.03860420568 0.6082179158)
(0.005864908576 0.02702480246 0.6211744241)
(-0.03962510899 -0.01704389815 0.6760733027)
(-0.07159969586 -0.01264882269 0.6266914561)
(-0.06602701779 -0.03640155016 0.6360883124)
(-0.03934681404 -0.07908883217 0.5621839001)
(0.0257179823 -0.04243264407 0.6470673135)
(0.06648688336 -0.03940717416 0.6354709594)
(-0.1871812104 0.01243268081 0.7431863259)
(0.02366297332 -0.01168564921 0.916464984)
(0.1119851126 0.0207457155 0.7393801329)
(-0.02262409668 -0.002620617485 0.7615282111)
(0.004387472899 0.01243612167 0.6216486528)
(-0.06656675358 0.01515463957 0.6672352178)
(-0.04366216514 0.04393722997 0.5885175558)
(-0.04861942661 0.06326413972 0.5815782737)
(-0.04657013032 0.04076868149 0.5784028188)
(-0.009323042054 0.07852228712 0.5672627029)
(0.01170278875 0.03314116224 0.5299087791)
(0.03686533875 0.05526642497 0.5909336679)
(0.01786428202 0.01774105479 0.6085745752)
(-0.01242551646 0.03078053658 0.6013776962)
(-0.06205820706 0.02515051048 0.6026772814)
(-0.111845261 0.02303532977 0.5863483965)
(-0.1329422923 0.02429149903 0.5357082144)
(-0.05953895679 0.02133469255 0.4451781348)
(0.07350657959 -0.00491373883 0.4528006478)
(0.0644792253 0.008146094155 0.6756121352)
(-0.1372607873 0.03464659284 0.7051613648)
(0.2429888304 0.04239893739 0.8468084045)
(0.1026529474 0.01603531181 0.7188882486)
(0.04445563081 0.005131992012 0.6518762335)
(0.01163515247 0.004642912589 0.6115587841)
(-0.01013180594 0.01393829691 0.5912734468)
(-0.02608703205 0.02798959901 0.5796139253)
(-0.03537648501 0.04213787022 0.5752097015)
(-0.03457412442 0.04988193502 0.57558112)
(-0.01359564691 0.05313090239 0.5760864856)
(0.006495429654 0.01923221916 0.5388823502)
(0.02141687888 0.025611156 0.5902971172)
(0.01265345813 0.01579474055 0.5921281271)
(-0.01641461261 0.01767460148 0.6429545084)
(-0.04994588643 0.02789809377 0.5983233592)
(-0.07488574101 0.04385761843 0.6298242176)
(-0.09996432805 0.09890807736 0.561419819)
(-0.03209220678 0.06870144399 0.5821929751)
(0.03284798133 0.12157527 0.4492654427)
(0.08277444636 0.08832402587 0.5756110469)
(-0.1195284857 0.06290327502 0.6924366847)
(0.2371978434 0.03047133958 0.8024203065)
(0.0145154477 -0.05100644073 0.7537183937)
(0.04215292747 -0.01193755017 0.6313843069)
(-0.02679246113 -0.04572639161 0.6656228931)
(-0.003360930766 -0.01022615794 0.5761591713)
(-0.05100425827 -0.02953940482 0.6226073958)
(-0.03121356696 -0.0022873576 0.5626782683)
(-0.03930972272 -0.01918405543 0.5822909895)
(-0.01972652009 -0.008254523472 0.5741262969)
(0.001715669547 -0.01638369459 0.5903862262)
(0.01245822131 -0.02486109468 0.600027213)
(0.01088085823 -0.02772371829 0.6074006242)
(-0.0009449086194 -0.02266382103 0.6091918095)
(-0.0215803058 -0.001672777602 0.6102968025)
(-0.04417515891 0.03773743866 0.60083489)
(-0.05248894242 0.08873627967 0.5826417932)
(-0.03921966984 0.1372638715 0.5605379866)
(0.0127673697 0.1490906544 0.5324578766)
(0.04213371007 0.07240123306 0.6481136317)
(-0.1255433476 0.05208537095 0.6864770291)
(0.209705739 0.007169937323 0.757034859)
(0.07726502714 -0.02372006097 0.6644620105)
(0.03812569993 -0.03760086889 0.616059051)
(0.01611303454 -0.04195674727 0.5884598705)
(-0.0347228741 -0.06419772307 0.5987706602)
(-0.01992909748 -0.04215451558 0.5638256131)
(-0.03663626318 -0.04820483284 0.5633171563)
(-0.04351000508 -0.05882887133 0.5650151029)
(-0.02838607756 -0.06916100494 0.5725739728)
(0.00493358358 -0.04607579076 0.5013808292)
(0.02009893921 -0.03661784488 0.522038898)
(0.01252662735 -0.06579539142 0.6433693786)
(0.01066713333 -0.01177316536 0.6117258663)
(0.009521154145 -0.0386003835 0.6393635123)
(-0.02348134914 0.04161608506 0.6182873047)
(-0.005924277653 0.04677761067 0.60484132)
(-0.01527774233 0.08720141668 0.5900791121)
(0.003305905354 0.1033335571 0.5771956655)
(-0.008690016679 0.06677018088 0.6084984677)
(-0.1446786294 0.01319911997 0.6842670362)
(0.01535152672 -0.04786642288 0.6474614868)
(0.0614917593 -0.04561159161 0.6451532422)
(-0.007967174971 -0.06981453514 0.5876506876)
(0.01541395858 -0.06987407025 0.5835179861)
(-0.001296420368 -0.07104988463 0.5744713776)
(-0.02528640032 -0.07331511343 0.5701380482)
(-0.04950062694 -0.07914608729 0.5224764395)
(-0.05748751153 -0.09778729839 0.5681901648)
(-0.03537824064 -0.1094979417 0.5714042051)
(-0.005432093518 -0.09543110371 0.6107868912)
(0.006547653226 -0.08495716874 0.6540764887)
(0.01413394629 -0.08076558808 0.6838976481)
(0.02350239222 -0.07501832063 0.6884951821)
(0.03417038178 -0.05969080871 0.6769859236)
(0.0382486547 -0.0307047288 0.649527978)
(-0.0019976061 0.04202359098 0.5893938873)
(0.01286969363 0.03091334462 0.5996497733)
(-0.001701934115 0.05674194376 0.5829116703)
(-0.04899347145 0.009359103361 0.6104350128)
(-0.1689818353 -0.02998812472 0.6760373662)
(0.1507130459 -0.01793471313 0.6973129381)
(0.04250089325 -0.0522848699 0.6334342479)
(0.02141240263 -0.07305534239 0.598681197)
(0.01245253069 -0.08230095462 0.5784972103)
(-0.03624227428 -0.07250293928 0.5297526616)
(-0.03060133951 -0.08276866849 0.5731331039)
(-0.05610540829 -0.0774696552 0.499387202)
(-0.07243321106 -0.1029357626 0.5612654009)
(-0.0181223203 -0.07201559114 0.4430982856)
(0.003749785247 -0.0837223548 0.6039124243)
(0.03800111842 -0.04993650845 0.4636609099)
(0.01434581124 -0.0597189595 0.6976508412)
(0.05384049689 -0.03457025055 0.5744623796)
(0.04818472973 -0.0200702714 0.5997242175)
(0.06240060663 -0.0379676454 0.6838838182)
(0.0531589379 -0.01925267929 0.6389994733)
(0.02399316752 -0.005058258364 0.6081070398)
(-0.01741111288 -0.001618721143 0.5896908717)
(-0.07866929669 -0.0165068488 0.6047418969)
(-0.202122214 -0.03456611415 0.6593444344)
(-0.01805630265 -0.000447920538 0.6406123555)
(0.01269103582 -0.04528318296 0.6210687954)
(-0.02869420858 -0.03311269543 0.5768205767)
(0.0100275443 -0.06900870416 0.5665059115)
(0.0007108413482 -0.06841682684 0.5609517126)
(-0.03178943484 -0.0652885245 0.5640582028)
(-0.06997525748 -0.0661119741 0.5588412476)
(-0.08457240498 -0.07505406074 0.5411358034)
(-0.02610647357 -0.08938893464 0.5176357895)
(0.02131976124 -0.03450470862 0.4371594195)
(0.02002543465 -0.02199718431 0.6234720617)
(0.06582173123 -0.02361061235 0.5384135899)
(0.02817673325 -0.0184238329 0.6926624352)
(0.07061265507 -0.01210874125 0.6236990884)
(0.05906433252 -0.002314021338 0.6365795975)
(0.06531003552 -0.02370208869 0.6550220398)
(0.0137602626 0.01486770174 0.6321040004)
(-0.01662029542 -0.01469504873 0.6003676222)
(-0.08563596992 -0.01370179592 0.6174217151)
(-0.02484417056 0.01609076575 0.6687186099)
(0.091642526 0.002405701844 0.6684988624)
(-0.005267668708 -0.0006361595212 0.5993223061)
(-0.03795655821 0.01067357813 0.6047127745)
(-0.04023225199 0.006456968876 0.5821858281)
(0.003290795863 -0.009612651518 0.5441731175)
(-0.02981565689 -0.008983165161 0.5461184825)
(-0.07574682537 -0.004328611579 0.5377440621)
(-0.05386742093 0.005575829487 0.4890322895)
(-0.007808689204 0.01893948464 0.4255827213)
(0.06993112558 0.03372811328 0.5361267633)
(0.0358060113 0.04543870592 0.5702774159)
(0.01846440309 0.05093843348 0.5954027768)
(0.02336770149 0.047462172 0.6272901242)
(0.04675974703 0.03374261341 0.6559225391)
(0.06814346767 0.01520632442 0.6703686391)
(0.06613467169 0.002588688505 0.6548428781)
(0.03629842359 -0.0004725818383 0.6217467338)
(-0.009334126498 0.003525884446 0.5949336728)
(-0.02343692704 0.02082737128 0.6860755508)
(-0.1942944838 0.03557963838 0.6890822388)
(-0.03406030061 0.05122696961 0.7302936661)
(-0.00154558612 0.05071123728 0.6178380486)
(-0.002556567198 0.05620706011 0.5883344684)
(0.00164435442 0.0524442155 0.5761187209)
(-0.002922321408 0.04722906099 0.5723413281)
(-0.06547693201 0.05938481861 0.582983526)
(-0.06129768869 0.05361109446 0.5476961247)
(-0.06703882228 0.0757198307 0.5153562867)
(-0.01083359307 0.0675762806 0.4744662057)
(0.06158620875 0.09331777464 0.5260982798)
(0.06121601534 0.06447908808 0.4959120071)
(0.02917724461 0.09923194602 0.580162425)
(0.08591886937 0.06083478039 0.6144011735)
(0.03256398911 0.07982804567 0.6450434078)
(0.07241545204 0.04320270578 0.676209503)
(0.05129820895 0.03588914667 0.6595986837)
(0.02125035448 0.02779165433 0.6924333096)
(0.0001618437437 0.02630618693 0.6143000213)
(-0.03696544854 0.02755813023 0.6164099884)
(-0.1993400775 0.007792729726 0.6973732239)
(0.1868136929 0.02581280782 0.7188171588)
(-0.03227681172 0.07499231695 0.7229277985)
(-0.002787948625 0.06869913465 0.6064825011)
(-0.04356190908 0.09061315101 0.6555925027)
(-0.009776752295 0.06027882007 0.5935652241)
(-0.02896905399 0.06099666714 0.5827851957)
(-0.0661819801 0.1040551409 0.5838686416)
(-0.04770238976 0.09144618347 0.52850316)
(0.01097232489 0.1111361638 0.4965711363)
(0.06118203961 0.1035098146 0.5269007326)
(0.05348309459 0.1007727866 0.5494094734)
(0.03401377292 0.09743486711 0.5746483456)
(0.02016976363 0.09000769031 0.6048912102)
(0.02113679009 0.07661019087 0.6338632598)
(0.03127949972 0.05988459998 0.6492662702)
(0.04193839642 0.03971090703 0.6986076589)
(0.02582759932 0.02972690787 0.6325713913)
(-0.01315325997 0.01565130485 0.724636463)
(-0.05402536549 -0.002620790675 0.6334915163)
(-0.2472032344 -0.04825572425 0.7209871077)
(0.2450951001 0.008499818257 0.7374279321)
(0.02513686039 0.04763676571 0.6437406798)
(0.000604517608 0.05512103526 0.6190796339)
(-0.008467099145 0.05623918362 0.6150697523)
(-0.04906875456 0.1047307291 0.6747401008)
(-0.02409574154 0.05755888617 0.5996163567)
(-0.03562519506 0.07022213046 0.5784721428)
(-0.0328356919 0.08884839466 0.5520788563)
(-0.005682880911 0.1210360928 0.5319972318)
(0.02939504517 0.1107170877 0.5087698073)
(0.04876159901 0.08451012652 0.55573089)
(0.03092061581 0.07546967623 0.5751424576)
(0.01564186327 0.0668018499 0.5991254601)
(0.06193128499 0.06687501125 0.6663331343)
(0.01969569287 0.04699620697 0.6319720724)
(0.02260086087 0.03416118049 0.6262925213)
(0.00850692453 0.0175177658 0.6223248754)
(-0.03150447489 -0.007826709804 0.6265472235)
(-0.0971659772 -0.05134411333 0.6547873967)
(-0.2966597271 -0.1269566245 0.751526994)
(0.2767704876 -0.02524314641 0.7545200668)
(0.03665514643 0.01485344305 0.659813448)
(-0.01857291041 0.07307525831 0.7632892503)
(-0.005526963219 0.02755250575 0.6316688241)
(-0.009052386728 0.02987134433 0.6293075681)
(-0.01477010602 0.03731339359 0.6192429219)
(-0.04959209368 0.1061864099 0.6527880294)
(-0.01715492482 0.06677454126 0.5755072424)
(0.01433848552 0.0788344134 0.5524135315)
(0.04163694909 0.06559472818 0.559156782)
(0.03663308179 0.0537321102 0.566697638)
(0.05273469245 0.07533521585 0.5932428381)
(0.01053588323 0.03886690557 0.5888767052)
(0.006886346711 0.03445635124 0.6037967348)
(0.03348092905 0.03312392946 0.6883947171)
(0.008149150177 0.01800403582 0.6055090311)
(-0.01392251632 0.003448921228 0.7259853886)
(-0.07216966465 -0.03096142529 0.6333842263)
(-0.1712727435 -0.09347815255 0.6660515215)
(-0.05763570874 -0.03519623162 0.8502509997)
(0.02406565805 0.01682981394 0.9209785844)
(0.04962306492 -0.02895208304 0.6904592904)
(0.01513163089 -0.01749780338 0.6652254461)
(0.002087739412 -0.009854327 0.6602244961)
(-0.03220261669 0.05955377185 0.7477370729)
(-0.00218296988 0.007460502129 0.6397098817)
(-0.006418412594 0.01915410943 0.6167883568)
(-0.02785808658 0.07715689805 0.6435850395)
(0.0115339137 0.03400488715 0.5753569117)
(0.01709272067 0.0666008417 0.5603512479)
(0.02698917476 0.01438712444 0.5790209324)
(0.01774942911 0.01129823596 0.581996066)
(0.008004561232 0.01011657015 0.5833218341)
(0.03260215502 0.02654934365 0.672406703)
(0.002579451322 0.007237708911 0.5957198316)
(-0.005030596278 0.0004769230284 0.5960755137)
(-0.03565029149 -0.01091180953 0.6125366664)
(-0.1176293453 -0.0256692871 0.6422784926)
(-0.07435825061 -0.02187496382 0.8168787598)
(-0.3653326951 -0.08701796888 0.6448360405)
(0.2928019536 -0.1304492254 0.8368331773)
(0.06214289332 -0.08573985492 0.7471630924)
(0.002629597612 0.007184704036 0.8626721748)
(0.01561688409 -0.05398086514 0.7044086737)
(0.01352012212 -0.03762468063 0.6912660749)
(-0.03176315477 0.02733271614 0.7559355936)
(0.003072928623 -0.01854712812 0.6356573107)
(-0.0006350521806 -0.0197989861 0.6132807443)
(0.007953169264 -0.02327852243 0.6015513752)
(0.02092435756 -0.03087078157 0.5987275192)
(0.0241294992 -0.02940008893 0.6002141448)
(0.02987350131 0.02093280132 0.6212638858)
(0.008744797163 -0.02168442493 0.5888526896)
(0.002471070368 -0.01922717636 0.5936398899)
(0.01376886823 -0.001637159548 0.7145664134)
(-0.009749052127 -0.02640528086 0.6064491016)
(-0.02425093857 -0.01581948627 0.777756681)
(-0.081669281 -0.03272727241 0.6735252137)
(-0.185844192 -0.01114964626 0.7271364507)
(-0.3469618626 0.01059968047 0.7871208444)
(0.03751037808 -0.03427468498 1.024093557)
(0.1022885099 -0.2838138781 0.8544056096)
(0.06809268426 -0.269775212 0.8219418461)
(-0.00172525019 -0.01682411441 0.8732792539)
(0.04928929033 -0.2201912337 0.763272545)
(0.03233236104 -0.1812705244 0.7230739016)
(0.01051778499 -0.1467450546 0.6847073324)
(-0.02080359662 -0.002371001305 0.6996834933)
(0.004485287099 -0.1400594293 0.6579400273)
(0.01167844697 0.001809892102 0.6079678762)
(0.02853290846 -0.118875281 0.650944823)
(0.02137243507 -0.1100912384 0.6405154545)
(0.008038906587 -0.117847337 0.6311354472)
(-0.003674398768 -0.1421289581 0.6389678089)
(-0.01558048397 -0.1807656447 0.6529012766)
(-0.03274814165 -0.2288880638 0.6740012103)
(-0.05797067501 -0.27342021 0.7099832453)
(-0.09917892985 -0.2972596986 0.7529942361)
(-0.06401570793 -0.02208582123 0.9341072308)
(-0.3501889614 -0.2608554213 0.892511323)
(0.03003328549 0.003006088602 1.398497509)
(-0.02327055103 -0.03902372452 1.215640134)
(-0.01548685926 -0.03145309367 1.113617127)
(-0.06043314431 -0.02718458701 1.044182156)
(-0.08106075746 -0.05858425343 0.99089235)
(-0.05250094534 -0.04558428431 0.666646171)
(-0.06309517997 -0.1072593207 0.9686643462)
(-0.02043148813 -0.07248284574 0.6153452836)
(0.02848891751 -0.1461816868 1.049377543)
(0.02682301361 -0.06208708301 0.5881617291)
(0.08818499734 -0.09856967519 1.18093816)
(0.04451974541 -0.0366124702 0.6912643128)
(0.04020136151 -0.0247356552 1.228500171)
(0.01693856976 -0.02731217725 0.791067728)
(0.008982093641 -0.01809149917 1.225715367)
(-0.01636719666 -0.04604642718 1.240412265)
(-0.0206124139 -0.06742336126 1.237775854)
(0.004586584027 -0.05753168599 1.252410725)
(0.0434715557 -0.02930244749 1.295749885)
(-0.02934391578 0.02496093416 1.382932418)
(-0.01653061307 -0.03379611645 1.304804992)
(-0.01284639746 0.01248645046 0.8464476189)
(0.01242219958 -0.05129266637 0.9486781987)
(-0.05324761853 -0.01195094005 0.7092301314)
(-0.09388343654 -0.09104149791 0.922592779)
(-0.1108019852 -0.1230572057 0.8977287102)
(-0.09733947014 -0.151994875 0.8846290746)
(-0.05668901563 -0.1744566106 0.8999102227)
(0.0178614813 -0.1945194547 0.9365360729)
(0.09825826908 -0.1836833372 1.003977739)
(0.1312428119 -0.150056617 1.080976856)
(0.1127471481 -0.1107866152 1.135211233)
(0.06677417279 -0.07800621316 1.154528927)
(0.01495076041 -0.0705801746 1.153719227)
(-0.03522024895 -0.09689448805 1.147334787)
(-0.07181217131 -0.1612707597 1.131696569)
(-0.01016778444 -0.08837217301 0.7699795768)
(0.05288113808 -0.2261190272 1.098619915)
(0.02649140756 -0.07231696452 0.8514192914)
(0.03287913627 -0.1033801045 1.279748743)
(-0.006584385614 0.05629994689 1.306067865)
(-0.03486718978 0.07396917538 1.020641888)
(0.001051857573 0.05403494978 1.005731942)
(-0.08892912358 0.0009140257375 0.933681977)
(-0.1313175667 -0.0311874503 0.8865356402)
(-0.1513660331 -0.0646570986 0.8420986847)
(-0.1300031397 -0.08913376216 0.8046839901)
(-0.04278600167 -0.04998900166 0.5249164944)
(0.006533013537 -0.1278638781 0.8300975047)
(0.1172847607 -0.1260999336 0.8863099014)
(0.05827802616 -0.04571836458 0.5471963092)
(0.148738178 -0.08691437376 1.06049704)
(0.03750110587 -0.05073980628 0.6820476531)
(0.000329240892 -0.07358792638 1.107473362)
(-0.03340967998 -0.07619327488 0.7109148627)
(-0.1380888033 -0.1677160719 1.048167848)
(-0.07082348127 -0.2257919046 0.9473676843)
(0.09147993562 -0.2271666014 0.9583498033)
(0.1767589318 -0.1791315693 1.087131933)
(0.0413312711 -0.06150754918 0.8485355365)
(-0.00408549636 0.0194340835 0.9088087791)
(-0.0570088212 0.09054125574 1.120954346)
(-0.05074427344 0.01771916623 0.732704818)
(-0.1090567735 0.0391392867 0.9423315458)
(-0.145815911 0.03345369107 0.8811921365)
(-0.09893875523 0.001864973284 0.574958343)
(-0.1356328873 0.02053635855 0.7929574848)
(-0.09485601977 0.00791288047 0.8029069969)
(-0.009686905665 -0.02823493006 0.8112766617)
(0.1154605075 -0.0156034924 0.838988468)
(0.1739837793 -0.02483041403 0.9224593205)
(0.0554772532 -0.02501980366 0.59556996)
(0.08122571185 -0.05696388374 1.048890474)
(-0.02050595104 -0.04984586174 0.6743051676)
(-0.1392698605 -0.1155877265 1.057866626)
(-0.05780960461 -0.08041593026 0.6336550232)
(-0.08815185855 -0.2251704322 0.8926931526)
(0.03072045662 -0.08721273459 0.6413499307)
(0.2224745544 -0.1782053197 1.040020201)
(0.1064032323 -0.1091263308 1.181346636)
(-0.01065341534 0.02561277525 1.385667946)
(-0.05773490424 0.05680072159 1.168846233)
(-0.06257113245 0.05313333969 1.054748287)
(-0.09483435359 0.06584587957 0.9823517115)
(-0.1270260317 0.08304694093 0.9376130928)
(-0.1481167528 0.1026631724 0.894284915)
(-0.137816372 0.1163804243 0.8505921312)
(-0.05314115904 0.03189628168 0.5148451988)
(-0.01655692781 0.1170748086 0.8102172654)
(0.02393246993 0.02109643791 0.4783544825)
(0.1463758053 0.08188027791 0.9078860291)
(0.1172423652 0.03054354016 0.9737379792)
(0.04675775606 -0.01456498688 1.006108431)
(-0.07463546643 -0.06190487591 1.029537919)
(-0.1929169003 -0.1131807327 1.012091591)
(-0.2366459356 -0.1826061528 0.9455719181)
(-0.1194666591 -0.2763070538 0.8634519289)
(0.1882982798 -0.2979501552 0.9060951546)
(0.07745447516 -0.04265421577 0.6550886554)
(0.1651445479 -0.1009478722 1.153777713)
(0.006381972385 -0.01348064165 1.372275826)
(-0.01791056883 -0.0149941181 0.7970913224)
(-0.05365563606 0.01352235419 1.064997068)
(-0.06603237843 0.002794032858 0.6780502033)
(-0.09681673546 0.05846868232 0.9683802546)
(-0.08691335601 0.02952655802 0.6048633126)
(-0.1120686228 0.1271512864 0.918836809)
(-0.09563903031 0.1492516697 0.9016381556)
(-0.0167341947 0.04298287285 0.5085503695)
(0.08147948215 0.1537070832 0.8999497845)
(0.03325095741 0.02672447767 0.5261518799)
(0.06048249046 0.05960420175 0.9654316258)
(-0.01132414116 0.01146204153 0.6249846769)
(-0.1580330182 0.003376300191 0.9770832277)
(-0.08919268589 0.008865825755 0.5963384084)
(-0.3783369363 0.005143190889 0.8522604718)
(-0.03312782931 0.01219436368 0.5267898755)
(0.2996032952 -0.1632984539 0.8632021036)
(0.4175582374 -0.08828787966 0.9527238624)
(0.2452192138 -0.03378753542 1.09847025)
(0.01325888718 -0.04921274453 0.83108294)
(-0.03492085255 -0.05440500836 1.143452323)
(-0.03171661074 -0.03659304285 0.7118798199)
(-0.05276741909 -0.02830324747 0.9820750528)
(-0.06628872752 -0.01183440105 0.6386531019)
(-0.07893238679 0.02791570646 0.938627568)
(-0.06686624835 0.01537065058 0.5905715108)
(-0.06695579272 0.08492564141 0.928306064)
(-0.01230513282 0.1138169177 0.9171000746)
(0.04483808873 0.09330578581 0.9426448303)
(0.05099597638 0.06497657146 0.9588351146)
(0.03319543893 0.04581666109 0.9676283622)
(-0.02367408605 0.03943037882 0.9764934122)
(-0.1223792614 0.06861515042 0.978028461)
(-0.225698293 0.132755126 0.9401944702)
(-0.07680763393 0.06425845668 0.5523221291)
(-0.2297334137 0.3440577342 0.8424203659)
(0.02823664868 0.0678735542 0.5425476669)
(0.3534955876 0.1832911373 0.9355857721)
(0.08172244476 0.03727237849 0.6912924483)
(0.0540388711 -0.08197836631 1.254571894)
(-0.02054725134 -0.08599519896 1.105531793)
(-0.02577421665 -0.08110101358 1.016897013)
(-0.03666564602 -0.06736080505 0.9624220553)
(-0.04789610034 -0.0516027893 0.9338840821)
(-0.05881411303 -0.03598684272 0.9200026568)
(-0.06337570732 -0.02420726146 0.9158843524)
(-0.05354101198 -0.02581255639 0.9196365439)
(-0.01834837155 -0.02121165945 0.5310588588)
(0.007431613519 -0.01679023075 0.5109215811)
(0.04538539514 -0.002916458822 0.9732724123)
(0.01778524485 -0.004731815217 0.5811126428)
(-0.002272723829 0.02219016144 0.9913531096)
(-0.0374505215 0.03159435689 0.6208280372)
(-0.1358986517 0.1335084995 0.9771586872)
(-0.1667693539 0.2362900448 0.9326891259)
(-0.1393926088 0.3450808804 0.9004840486)
(0.07508226924 0.4028724565 0.876545713)
(0.2181483587 0.2313463087 0.9715315925)
(0.148048406 0.09552936072 1.087187229)
(0.08864105568 -0.1019437998 1.190628134)
(0.002329541922 -0.07874013912 0.6533154774)
(-0.01421337137 -0.115163694 0.9934898596)
(-0.03090719483 -0.08146600156 0.5929931739)
(-0.0339755097 -0.09442332663 0.9269442597)
(-0.05447648502 -0.08688558277 0.9186300902)
(-0.05464882448 -0.07089914074 0.5500956869)
(-0.07334406902 -0.1244291531 0.9171312226)
(-0.01005732334 -0.1512963656 0.9228444079)
(0.05946439077 -0.118429954 0.9692557877)
(0.07152301916 -0.07331990918 1.011435457)
(0.05168363769 -0.0370070734 1.038408524)
(0.02252508923 -0.01225232364 1.040570596)
(-0.007777977253 0.01418023891 0.6040043793)
(-0.0540901783 0.07912007272 1.015100329)
(-0.03066290571 0.07848484993 0.5738917477)
(-0.06731373209 0.2387112849 0.9666421588)
(0.01078978705 0.09285385736 0.5633022949)
(0.1029325768 0.1555554069 1.002550154)
(0.06700820379 0.02175711718 1.080459548)
(0.1248731204 -0.1099668479 1.13615725)
(-0.01051363112 -0.1298552146 1.033795507)
(-0.01236658855 -0.1473452228 0.9738226999)
(-0.01018574762 -0.1542651684 0.9360645156)
(-0.02220365458 -0.1458125156 0.9250157165)
(-0.06033293335 -0.1399591748 0.9233500891)
(-0.1007542576 -0.1622384181 0.9223842731)
(-0.04482217198 -0.09141700552 0.4720202518)
(-0.01491963546 -0.2410856674 0.8967060493)
(0.09312332923 -0.192758297 0.9664908149)
(0.03414101246 -0.0588727741 0.4560841043)
(0.0433349903 -0.04879403467 0.5127587667)
(0.04836443457 -0.0611058981 1.106506396)
(0.02256221861 -0.01821340126 1.086421246)
(-0.001865152651 0.02656959069 1.046585706)
(-0.01648660584 0.06680453361 1.012867846)
(-0.02964019872 0.1070036143 0.9914045751)
(-0.004705095178 0.1126031415 0.9724645954)
(0.008587190674 0.03046641469 1.003356245)
(0.0135677403 0.02036007188 0.6048762864)
(-0.008285541778 -0.03388390739 0.5752309042)
(-0.01892398429 -0.05504646049 0.5522268259)
(-0.0255258282 -0.162509757 0.9539410908)
(-0.03426826485 -0.079058845 0.5074708663)
(-0.01575777445 -0.1765011185 0.9156137964)
(-0.055827121 -0.08611633094 0.4872024538)
(-0.1364753482 -0.1906500084 0.9099123934)
(-0.1484902207 -0.2336656203 0.8698222898)
(-0.01655423346 -0.285239179 0.8383211935)
(0.01798199836 -0.06776410982 0.3959884167)
(0.1422843455 -0.1775073187 1.038168209)
(0.06163843802 -0.05235979002 0.4935278374)
(0.09595499972 -0.1199977404 1.148977388)
(0.05651170208 -0.02547579414 0.5685009006)
(0.04165231876 -0.003923939437 0.5768281298)
(-2.613474725e-05 0.01067211725 1.030469339)
(0.006484625486 0.0290999722 0.568541313)
(-0.04521598585 0.02054004672 0.9638451553)
(-0.0745224293 -0.01709895013 0.9696636615)
(-0.09835839728 -0.04831576768 0.9684830287)
(-0.006949563279 -0.06088806313 1.069096862)
(-0.07738878782 -0.1180968778 0.9784883113)
(-0.04986411678 -0.1444875489 0.9168463977)
(-0.01916539451 -0.1561981126 0.882990323)
(-0.01160128676 -0.1531564266 0.881381702)
(-0.06373145001 -0.05532550879 0.4924353496)
(-0.1668198331 -0.1603141929 0.877523293)
(-0.05605811202 -0.05555036621 0.4305806459)
(-0.008174638106 -0.2760702894 0.8008293789)
(0.1677861069 -0.1645603342 0.8594431063)
(0.1550992058 -0.1461032126 0.9720812536)
(0.1320856956 -0.1508960958 1.042702743)
(0.1276343226 -0.142803265 1.092680988)
(0.1213249956 -0.12119612 1.117506943)
(0.08452659571 -0.07244581853 1.10151493)
(0.03271287061 -0.02484491471 1.049988623)
(-0.01562831405 -0.0133928855 1.007066373)
(-0.04953729174 -0.01479138905 0.9778133352)
(-0.01827853511 0.01904914671 0.6049979387)
(-0.3298985556 0.04575022852 1.080201326)
(-0.04810095901 0.03308764054 0.636371531)
(-0.1201671254 -0.0020040799 0.8913584719)
(-0.05249304586 0.01261874624 0.5550701759)
(-0.02147188047 -0.003671676938 0.8127154716)
(-0.01003704059 -0.004777951579 0.8048759756)
(-0.08422590035 -0.01620461161 0.8375788999)
(-0.07701306453 0.00296461521 0.4804313878)
(-0.2682583253 -0.02274387301 0.7763942476)
(-0.01479107038 0.008297805193 0.4043144091)
(0.2489023293 0.0001450071963 0.8053143407)
(0.06622605789 0.01508957612 0.4411171303)
(0.1247321138 -0.009511140652 0.8707677761)
(0.09839508756 0.0167525779 0.5589482271)
(0.1581480426 -0.01822657545 0.9635573854)
(0.08456819815 0.01769805844 0.6197083053)
(0.05854907367 0.01946874203 0.6313525614)
(-0.01074435064 0.02064209685 0.9876054962)
(-0.05872546332 0.02593514704 0.9258070892)
(0.007497620535 0.02557288403 0.8833804467)
(-0.01521599711 0.02788118549 0.6769318291)
(-0.09605254154 0.1141731614 1.068550539)
(-0.1140653372 0.1319954801 0.9628586505)
(-0.05736595195 0.1479309765 0.9083881971)
(-0.02603934959 0.1519741105 0.8998102192)
(-0.06243097932 0.06829120675 0.5583754451)
(-0.1029680218 0.1257177276 0.905124572)
(-0.181476853 0.1294446389 0.8687164255)
(-0.1878071885 0.1710759571 0.7836701015)
(0.01375885401 0.2551281834 0.7503485915)
(0.1809150853 0.1660446414 0.798649406)
(0.1622806876 0.1498998917 0.8630721602)
(0.1413894783 0.1516453735 0.91015018)
(0.1387152944 0.1438924667 0.9608187994)