/*--------------------------------*- C++ -*----------------------------------*\
  =========                 |
  \\      /  F ield         | OpenFOAM: The Open Source CFD Toolbox
   \\    /   O peration     | Website:  https://openfoam.org
    \\  /    A nd           | Version:  7
     \\/     M anipulation  |
\*---------------------------------------------------------------------------*/
FoamFile
{
    version     2.0;
    format      ascii;
    class       surfaceScalarField;
    location    "0.08";
    object      alphaRhoPhi;
}
// * * * * * * * * * * * * * * * * * * * * * * * * * * * * * * * * * * * * * //

dimensions      [1 0 -1 0 0 0 0];

internalField   nonuniform List<scalar> 
54
(
2.655391173e-08
3.666633686e-08
2.3147936e-05
-2.655344524e-08
3.613269572e-08
2.322813304e-05
3.666689932e-08
2.314793533e-05
2.613816951e-08
-1.674144306e-08
2.323841457e-05
-2.613693595e-08
-1.632414905e-08
2.331587052e-05
-1.674173139e-08
2.323841458e-05
2.672412784e-08
2.31676632e-05
-2.672327933e-08
2.324825277e-05
2.316766242e-05
3.112936863e-08
2.060875617e-08
2.309617946e-05
-3.112769722e-08
2.041164611e-08
2.326995804e-05
2.060921752e-08
2.309617996e-05
3.10603999e-08
-4.211441844e-08
2.32700574e-05
-3.105848613e-08
-4.198536568e-08
2.344036885e-05
-4.211468441e-08
2.327005602e-05
3.136903293e-08
2.309416212e-05
-3.136704931e-08
2.326897981e-05
2.309416125e-05
4.229866578e-08
9.312469475e-09
-4.229749742e-08
9.658855372e-09
9.31191697e-09
4.259485549e-08
-7.340858889e-08
-4.259304941e-08
-7.333959436e-08
-7.340905744e-08
4.265650465e-08
-4.265615904e-08
)
;

boundaryField
{
    inlet
    {
        type            calculated;
        value           nonuniform List<scalar> 9(-2.321116576e-05 -2.321115037e-05 -2.32111383e-05 -2.321116421e-05 -2.321114884e-05 -2.321113673e-05 -2.321116576e-05 -2.321115037e-05 -2.32111383e-05);
    }
    outlet
    {
        type            calculated;
        value           nonuniform 0();
    }
    walls
    {
        type            calculated;
        value           uniform 0;
    }
    procBoundary0to1
    {
        type            processor;
        value           nonuniform List<scalar> 9(2.304454253e-05 2.33448704e-05 2.304454002e-05 2.331015963e-05 2.360852085e-05 2.331015978e-05 2.297806722e-05 2.328092892e-05 2.297806799e-05);
    }
}


// ************************************************************************* //
