/*--------------------------------*- C++ -*----------------------------------*\
  =========                 |
  \\      /  F ield         | OpenFOAM: The Open Source CFD Toolbox
   \\    /   O peration     | Website:  https://openfoam.org
    \\  /    A nd           | Version:  7
     \\/     M anipulation  |
\*---------------------------------------------------------------------------*/
FoamFile
{
    version     2.0;
    format      ascii;
    class       volScalarField;
    location    "0.08";
    object      cpavg;
}
// * * * * * * * * * * * * * * * * * * * * * * * * * * * * * * * * * * * * * //

dimensions      [0 2 -2 -1 0 0 0];

internalField   nonuniform List<scalar> 
27
(
1011.623355
1011.623355
1011.623355
1011.623356
1011.623356
1011.623356
1011.623357
1011.623357
1011.623357
1011.638542
1011.638542
1011.638542
1011.638544
1011.638543
1011.638544
1011.638546
1011.638546
1011.638546
1011.664284
1011.664284
1011.664284
1011.664288
1011.664287
1011.664288
1011.664292
1011.664292
1011.664292
)
;

boundaryField
{
    inlet
    {
        type            calculated;
        value           uniform 1011.338357;
    }
    outlet
    {
        type            calculated;
        value           nonuniform 0();
    }
    walls
    {
        type            calculated;
        value           nonuniform List<scalar> 
36
(
1011.454051
1011.564192
1011.660257
1011.454271
1011.564267
1011.659781
1011.454051
1011.564192
1011.660257
1011.454051
1011.564098
1011.660171
1011.454271
1011.564172
1011.65969
1011.454051
1011.564098
1011.660171
1011.454051
1011.454271
1011.454051
1011.564192
1011.564218
1011.564098
1011.660257
1011.659732
1011.660171
1011.454051
1011.454271
1011.454051
1011.564192
1011.564218
1011.564098
1011.660257
1011.659732
1011.660171
)
;
    }
    procBoundary0to1
    {
        type            processor;
        value           nonuniform List<scalar> 9(1011.693277 1011.693276 1011.693277 1011.693283 1011.693282 1011.693283 1011.693291 1011.69329 1011.693291);
    }
}


// ************************************************************************* //
