/*--------------------------------*- C++ -*----------------------------------*\
  =========                 |
  \\      /  F ield         | OpenFOAM: The Open Source CFD Toolbox
   \\    /   O peration     | Website:  https://openfoam.org
    \\  /    A nd           | Version:  7
     \\/     M anipulation  |
\*---------------------------------------------------------------------------*/
FoamFile
{
    version     2.0;
    format      ascii;
    class       volScalarField;
    location    "0.08";
    object      muavg;
}
// * * * * * * * * * * * * * * * * * * * * * * * * * * * * * * * * * * * * * //

dimensions      [1 -1 -1 0 0 0 0];

internalField   nonuniform List<scalar> 
27
(
1.861182963e-05
1.86118296e-05
1.861182963e-05
1.861183052e-05
1.861183049e-05
1.861183052e-05
1.861183148e-05
1.861183144e-05
1.861183148e-05
1.862522482e-05
1.862522468e-05
1.862522482e-05
1.862522635e-05
1.862522621e-05
1.862522635e-05
1.862522816e-05
1.862522801e-05
1.862522816e-05
1.864789889e-05
1.864789853e-05
1.864789889e-05
1.864790182e-05
1.864790146e-05
1.864790182e-05
1.864790546e-05
1.864790509e-05
1.864790546e-05
)
;

boundaryField
{
    inlet
    {
        type            calculated;
        value           uniform 1.835366622e-05;
    }
    outlet
    {
        type            calculated;
        value           nonuniform 0();
    }
    walls
    {
        type            calculated;
        value           nonuniform List<scalar> 
36
(
1.846089105e-05
1.856064817e-05
1.864591102e-05
1.84610929e-05
1.856071592e-05
1.864549266e-05
1.846089105e-05
1.856064817e-05
1.864591101e-05
1.846089084e-05
1.856056378e-05
1.864583559e-05
1.846109268e-05
1.856063025e-05
1.864541216e-05
1.846089084e-05
1.856056378e-05
1.864583559e-05
1.846089105e-05
1.846109277e-05
1.846089084e-05
1.856064817e-05
1.856067205e-05
1.856056378e-05
1.864591101e-05
1.864544914e-05
1.864583559e-05
1.846089105e-05
1.846109277e-05
1.846089084e-05
1.856064817e-05
1.856067205e-05
1.856056378e-05
1.864591102e-05
1.864544914e-05
1.864583559e-05
)
;
    }
    procBoundary0to1
    {
        type            processor;
        value           nonuniform List<scalar> 9(1.867338987e-05 1.86733892e-05 1.867338987e-05 1.867339496e-05 1.867339429e-05 1.867339496e-05 1.867340135e-05 1.867340067e-05 1.867340135e-05);
    }
}


// ************************************************************************* //
