/*--------------------------------*- C++ -*----------------------------------*\
  =========                 |
  \\      /  F ield         | OpenFOAM: The Open Source CFD Toolbox
   \\    /   O peration     | Website:  https://openfoam.org
    \\  /    A nd           | Version:  7
     \\/     M anipulation  |
\*---------------------------------------------------------------------------*/
FoamFile
{
    version     2.0;
    format      ascii;
    class       volScalarField;
    location    "0.08";
    object      pDyn;
}
// * * * * * * * * * * * * * * * * * * * * * * * * * * * * * * * * * * * * * //

dimensions      [1 -1 -2 0 0 0 0];

internalField   nonuniform List<scalar> 
27
(
1.718420016
1.732566146
1.718419982
1.733331494
1.747868156
1.73333147
1.719969953
1.734157038
1.719969902
1.891795742
1.916827408
1.89179567
1.91793435
1.94315614
1.917934342
1.894060884
1.91921761
1.894060736
1.833576385
1.872058148
1.833576439
1.870265878
1.909066308
1.870265746
1.830550535
1.869242358
1.830550551
)
;

boundaryField
{
    inlet
    {
        type            calculated;
        value           nonuniform List<scalar> 9(2.217813122 2.222724381 2.217810499 2.222725707 2.228226219 2.222723075 2.217813122 2.222724381 2.217810499);
    }
    outlet
    {
        type            calculated;
        value           nonuniform 0();
    }
    walls
    {
        type            calculated;
        value           uniform 0;
    }
    procBoundary0to1
    {
        type            processor;
        value           nonuniform List<scalar> 9(1.585141216 1.636471061 1.585141059 1.627150377 1.679196328 1.627150349 1.569224438 1.620786285 1.569224521);
    }
}


// ************************************************************************* //
