/*--------------------------------*- C++ -*----------------------------------*\
  =========                 |
  \\      /  F ield         | OpenFOAM: The Open Source CFD Toolbox
   \\    /   O peration     | Website:  https://openfoam.org
    \\  /    A nd           | Version:  7
     \\/     M anipulation  |
\*---------------------------------------------------------------------------*/
FoamFile
{
    version     2.0;
    format      ascii;
    class       surfaceScalarField;
    location    "0.08";
    object      phi;
}
// * * * * * * * * * * * * * * * * * * * * * * * * * * * * * * * * * * * * * //

dimensions      [0 3 -1 0 0 0 0];

internalField   nonuniform List<scalar> 
54
(
3.575738398e-08
4.937474693e-08
3.061485134e-05
-3.57567558e-08
4.87138237e-08
3.075508556e-05
4.937550434e-08
3.061485047e-05
3.523929036e-08
-2.254397545e-08
3.076867518e-05
-3.523762729e-08
-2.200810563e-08
3.091031604e-05
-2.254436371e-08
3.076867521e-05
3.598663836e-08
3.0640898e-05
-3.598549576e-08
3.078167955e-05
3.064089696e-05
4.049858075e-08
2.681148138e-08
2.902959323e-05
-4.049640629e-08
2.65867131e-08
2.92738444e-05
2.681208159e-08
2.902959386e-05
4.045695566e-08
-5.478970416e-08
2.927390738e-05
-4.045446293e-08
-5.468694469e-08
2.951811647e-05
-5.479005018e-08
2.927390565e-05
4.081021111e-08
2.902694782e-05
-4.080763048e-08
2.927249728e-05
2.902694673e-05
5.147648806e-08
1.133304585e-08
-5.147506619e-08
1.176307926e-08
1.133237346e-08
5.18742764e-08
-8.933628697e-08
-5.187207687e-08
-8.93167752e-08
-8.933685719e-08
5.191177948e-08
-5.191135888e-08
)
;

boundaryField
{
    inlet
    {
        type            calculated;
        value           nonuniform List<scalar> 9(-3.102855299e-05 -3.106290004e-05 -3.102855299e-05 -3.106290004e-05 -3.11013218e-05 -3.106290004e-05 -3.102855299e-05 -3.106290004e-05 -3.102855299e-05);
    }
    outlet
    {
        type            calculated;
        value           nonuniform 0();
    }
    walls
    {
        type            calculated;
        value           uniform 0;
    }
    procBoundary0to1
    {
        type            processor;
        value           nonuniform List<scalar> 9(2.700142769e-05 2.736585173e-05 2.70014247e-05 2.732519273e-05 2.768938559e-05 2.732519287e-05 2.692361064e-05 2.729095147e-05 2.692361148e-05);
    }
}


// ************************************************************************* //
