/*--------------------------------*- C++ -*----------------------------------*\
  =========                 |
  \\      /  F ield         | OpenFOAM: The Open Source CFD Toolbox
   \\    /   O peration     | Website:  https://openfoam.org
    \\  /    A nd           | Version:  7
     \\/     M anipulation  |
\*---------------------------------------------------------------------------*/
FoamFile
{
    version     2.0;
    format      ascii;
    class       surfaceScalarField;
    location    "0.08";
    object      rhoPhi;
}
// * * * * * * * * * * * * * * * * * * * * * * * * * * * * * * * * * * * * * //

dimensions      [1 0 -1 0 0 0 0];

internalField   nonuniform List<scalar> 
54
(
4.188949336e-08
5.784210966e-08
3.57532537e-05
-4.188875745e-08
5.706707454e-08
3.591671878e-05
5.784299696e-08
3.575325268e-05
4.128197019e-08
-2.641006624e-08
3.593261668e-05
-4.128002195e-08
-2.578195211e-08
3.609761937e-05
-2.641052109e-08
3.593261671e-05
4.215801373e-08
3.578372345e-05
-4.215667519e-08
3.594782909e-05
3.578372223e-05
4.714756915e-08
3.121337821e-08
3.37057504e-05
-4.71450377e-08
3.095151011e-08
3.398971519e-05
3.121407697e-08
3.370575114e-05
4.709890991e-08
-6.378518239e-08
3.398986032e-05
-4.709600793e-08
-6.366514797e-08
3.427360235e-05
-6.378558522e-08
3.39898583e-05
4.751055721e-08
3.370280637e-05
-4.750755288e-08
3.39882863e-05
3.37028051e-05
5.960972906e-08
1.312367121e-08
-5.960808254e-08
1.362196203e-08
1.312289259e-08
6.007187e-08
-1.034516341e-07
-6.006932287e-08
-1.034314245e-07
-1.034522944e-07
6.011401631e-08
-6.011352925e-08
)
;

boundaryField
{
    inlet
    {
        type            calculated;
        value           nonuniform List<scalar> 9(-3.659598002e-05 -3.663646564e-05 -3.659593673e-05 -3.663648748e-05 -3.668177894e-05 -3.663644411e-05 -3.659598002e-05 -3.663646564e-05 -3.659593673e-05);
    }
    outlet
    {
        type            calculated;
        value           nonuniform 0();
    }
    walls
    {
        type            calculated;
        value           uniform 0;
    }
    procBoundary0to1
    {
        type            processor;
        value           nonuniform List<scalar> 9(3.120070247e-05 3.162339731e-05 3.120069907e-05 3.157637745e-05 3.199861748e-05 3.157637766e-05 3.111069954e-05 3.153678099e-05 3.111070058e-05);
    }
}


// ************************************************************************* //
