/*--------------------------------*- C++ -*----------------------------------*\
  =========                 |
  \\      /  F ield         | OpenFOAM: The Open Source CFD Toolbox
   \\    /   O peration     | Website:  https://openfoam.org
    \\  /    A nd           | Version:  7
     \\/     M anipulation  |
\*---------------------------------------------------------------------------*/
FoamFile
{
    version     2.0;
    format      ascii;
    class       volScalarField::Internal;
    location    "0.08";
    object      steelCloud:hsTrans;
}
// * * * * * * * * * * * * * * * * * * * * * * * * * * * * * * * * * * * * * //

dimensions      [1 2 -2 0 0 0 0];

value           nonuniform List<scalar> 
27
(
0.0002374198859
0.000237875135
0.0002374198859
0.000237875135
0.0002383832004
0.000237875135
0.0002374198859
0.000237875135
0.0002374198859
0.0002203069191
0.0002207783363
0.0002203069191
0.0002207783363
0.0002213224471
0.0002207783363
0.0002203069191
0.0002207783363
0.0002203069191
0.0001883529027
0.0001886760629
0.0001883529027
0.0001886760629
0.0001890389229
0.0001886760629
0.0001883529027
0.0001886760629
0.0001883529027
)
;


// ************************************************************************* //
