/*--------------------------------*- C++ -*----------------------------------*\
  =========                 |
  \\      /  F ield         | OpenFOAM: The Open Source CFD Toolbox
   \\    /   O peration     | Website:  https://openfoam.org
    \\  /    A nd           | Version:  7
     \\/     M anipulation  |
\*---------------------------------------------------------------------------*/
FoamFile
{
    version     2.0;
    format      ascii;
    class       volVectorField::Internal;
    location    "0.08";
    object      steelCloud:UTrans;
}
// * * * * * * * * * * * * * * * * * * * * * * * * * * * * * * * * * * * * * //

dimensions      [1 1 -1 0 0 0 0];

value           nonuniform List<vector> 
27
(
(-6.366691414e-08 -3.26327654e-15 -2.920481173e-10)
(-6.37889945e-08 -3.269533824e-15 -2.926081152e-10)
(-6.366691414e-08 -3.26327654e-15 -2.920481173e-10)
(-6.37889945e-08 -3.269533824e-15 -2.926081152e-10)
(-6.392523816e-08 -3.276517055e-15 -2.932330819e-10)
(-6.37889945e-08 -3.269533824e-15 -2.926081152e-10)
(-6.366691414e-08 -3.26327654e-15 -2.920481173e-10)
(-6.37889945e-08 -3.269533824e-15 -2.926081152e-10)
(-6.366691414e-08 -3.26327654e-15 -2.920481173e-10)
(-5.907787231e-08 -3.028063121e-15 -2.709976071e-10)
(-5.920428833e-08 -3.034542631e-15 -2.715774932e-10)
(-5.907787231e-08 -3.028063121e-15 -2.709976071e-10)
(-5.920428833e-08 -3.034542631e-15 -2.715774932e-10)
(-5.935019799e-08 -3.042021297e-15 -2.722467991e-10)
(-5.920428833e-08 -3.034542631e-15 -2.715774932e-10)
(-5.907787231e-08 -3.028063121e-15 -2.709976071e-10)
(-5.920428833e-08 -3.034542631e-15 -2.715774932e-10)
(-5.907787231e-08 -3.028063121e-15 -2.709976071e-10)
(-5.050902976e-08 -2.588863213e-15 -2.31691252e-10)
(-5.059568894e-08 -2.593304968e-15 -2.320887685e-10)
(-5.050902976e-08 -2.588863212e-15 -2.31691252e-10)
(-5.059568894e-08 -2.593304968e-15 -2.320887685e-10)
(-5.06929941e-08 -2.598292388e-15 -2.325351195e-10)
(-5.059568894e-08 -2.593304968e-15 -2.320887685e-10)
(-5.050902976e-08 -2.588863212e-15 -2.31691252e-10)
(-5.059568894e-08 -2.593304968e-15 -2.320887685e-10)
(-5.050902976e-08 -2.588863213e-15 -2.31691252e-10)
)
;


// ************************************************************************* //
