/*--------------------------------*- C++ -*----------------------------------*\
  =========                 |
  \\      /  F ield         | OpenFOAM: The Open Source CFD Toolbox
   \\    /   O peration     | Website:  https://openfoam.org
    \\  /    A nd           | Version:  7
     \\/     M anipulation  |
\*---------------------------------------------------------------------------*/
FoamFile
{
    version     2.0;
    format      ascii;
    class       volScalarField::Internal;
    location    "0.08";
    object      steelCloud:UCoeff;
}
// * * * * * * * * * * * * * * * * * * * * * * * * * * * * * * * * * * * * * //

dimensions      [1 0 0 0 0 0 0];

value           nonuniform List<scalar> 
27
(
3.491694148e-08
3.49838942e-08
3.491694148e-08
3.49838942e-08
3.505861452e-08
3.49838942e-08
3.491694148e-08
3.49838942e-08
3.491694148e-08
3.240016638e-08
3.24694969e-08
3.240016638e-08
3.24694969e-08
3.254951835e-08
3.24694969e-08
3.240016638e-08
3.24694969e-08
3.240016638e-08
2.770074317e-08
2.774826979e-08
2.770074316e-08
2.774826979e-08
2.780163501e-08
2.774826979e-08
2.770074316e-08
2.774826979e-08
2.770074317e-08
)
;


// ************************************************************************* //
