/*--------------------------------*- C++ -*----------------------------------*\
  =========                 |
  \\      /  F ield         | OpenFOAM: The Open Source CFD Toolbox
   \\    /   O peration     | Website:  https://openfoam.org
    \\  /    A nd           | Version:  7
     \\/     M anipulation  |
\*---------------------------------------------------------------------------*/
FoamFile
{
    version     2.0;
    format      ascii;
    class       volScalarField;
    location    "0.08";
    object      T;
}
// * * * * * * * * * * * * * * * * * * * * * * * * * * * * * * * * * * * * * //

dimensions      [0 0 0 1 0 0 0];

internalField   nonuniform List<scalar> 
27
(
300.017085
300.0208872
300.017085
300.0208848
300.0251285
300.0208848
300.017081
300.020883
300.017081
301.8986225
301.8999004
301.8986225
301.8990719
301.9016194
301.8990719
301.8970286
301.8982824
301.8970287
303.5106868
303.5027604
303.5106867
303.5019366
303.4959346
303.5019367
303.5092588
303.5012362
303.5092589
)
;

boundaryField
{
    inlet
    {
        type            fixedValue;
        value           uniform 298;
    }
    outlet
    {
        type            zeroGradient;
    }
    walls
    {
        type            zeroGradient;
    }
    procBoundary0to1
    {
        type            processor;
        value           nonuniform List<scalar> 9(304.8058648 304.7830155 304.8058636 304.78417 304.763722 304.7841689 304.8082416 304.785067 304.8082404);
    }
}


// ************************************************************************* //
