/*--------------------------------*- C++ -*----------------------------------*\
  =========                 |
  \\      /  F ield         | OpenFOAM: The Open Source CFD Toolbox
   \\    /   O peration     | Website:  https://openfoam.org
    \\  /    A nd           | Version:  7
     \\/     M anipulation  |
\*---------------------------------------------------------------------------*/
FoamFile
{
    version     2.0;
    format      ascii;
    class       volVectorField;
    location    "0.08";
    object      Uavg;
}
// * * * * * * * * * * * * * * * * * * * * * * * * * * * * * * * * * * * * * //

dimensions      [0 1 -1 0 0 0 0];

internalField   nonuniform List<vector> 
27
(
(1.24740756 5.11007904e-05 -0.01021360002)
(1.247411713 3.28893485e-08 -0.01021360469)
(1.24740756 -5.103503151e-05 -0.01021359988)
(1.24737447 5.106699937e-05 -0.01026008342)
(1.247378627 3.300862307e-08 -0.01026008525)
(1.247374469 -5.100100314e-05 -0.01026008334)
(1.247333068 5.103665739e-05 -0.01032343709)
(1.247337225 3.311315302e-08 -0.01032343848)
(1.247333067 -5.097045249e-05 -0.01032343708)
(1.219694064 5.367263427e-05 -0.01124665207)
(1.219698543 3.3848238e-08 -0.01124665157)
(1.219694063 -5.360493894e-05 -0.01124665193)
(1.219632051 5.362177431e-05 -0.0112955953)
(1.219636535 3.398061908e-08 -0.01129559267)
(1.219632051 -5.355381529e-05 -0.01129559523)
(1.219561119 5.357259444e-05 -0.01136279898)
(1.219565606 3.409687223e-08 -0.01136279699)
(1.219561119 -5.350440315e-05 -0.01136279898)
(1.182750931 5.9954917e-05 -0.01320635017)
(1.182756565 3.575910825e-08 -0.0132063353)
(1.182750931 -5.988334419e-05 -0.01320635002)
(1.182626972 5.986246731e-05 -0.01326098151)
(1.182632615 3.592716419e-08 -0.01326096578)
(1.182626972 -5.979055974e-05 -0.01326098144)
(1.182491935 5.976815832e-05 -0.01333763038)
(1.182497586 3.607526723e-08 -0.01333761758)
(1.182491934 -5.969595471e-05 -0.01333763038)
)
;

boundaryField
{
    inlet
    {
        type            interstitialInletVelocity;
        inletVelocity   uniform (1.23 0 0);
        value           uniform (1.23 0 0);
    }
    outlet
    {
        type            pressureInletOutletVelocity;
        phi             alphaRhoPhi;
        value           nonuniform 0();
    }
    walls
    {
        type            noSlip;
    }
    procBoundary0to1
    {
        type            processor;
        value           nonuniform List<vector> 9((1.159971499 7.170756171e-05 -0.01576931902) (1.159980598 3.850200503e-08 -0.01576927591) (1.159971498 -7.163039475e-05 -0.01576931885) (1.159754618 7.154036651e-05 -0.0158319662) (1.15976374 3.872930162e-08 -0.01583192241) (1.159754618 -7.146274707e-05 -0.01583196612) (1.159520041 7.136514607e-05 -0.01592828848) (1.159529186 3.893273601e-08 -0.0159282537) (1.15952004 -7.128712083e-05 -0.0159282885));
    }
}


// ************************************************************************* //
