/*--------------------------------*- C++ -*----------------------------------*\
  =========                 |
  \\      /  F ield         | OpenFOAM: The Open Source CFD Toolbox
   \\    /   O peration     | Website:  https://openfoam.org
    \\  /    A nd           | Version:  7
     \\/     M anipulation  |
\*---------------------------------------------------------------------------*/
FoamFile
{
    version     2.0;
    format      ascii;
    class       surfaceScalarField;
    location    "0.045";
    object      alphaRhoPhi;
}
// * * * * * * * * * * * * * * * * * * * * * * * * * * * * * * * * * * * * * //

dimensions      [1 0 -1 0 0 0 0];

internalField   nonuniform List<scalar> 
117
(
2.64704997e-08
3.659644747e-08
2.314897841e-05
-2.645563006e-08
3.605813497e-08
2.322892208e-05
3.659587734e-08
2.314899254e-05
2.604786065e-08
-1.664569514e-08
2.323923309e-05
-2.60377391e-08
-1.622862966e-08
2.331639903e-05
-1.664594241e-08
2.323923771e-05
2.663658081e-08
2.316873364e-05
-2.66231537e-08
2.324905103e-05
2.316874338e-05
3.097387637e-08
2.043461475e-08
2.309960557e-05
-3.097331251e-08
2.023596428e-08
2.327266421e-05
2.043821395e-08
2.309961552e-05
3.090484796e-08
-4.203080697e-08
2.327282093e-05
-3.089526642e-08
-4.190021873e-08
2.3442367e-05
-4.203222466e-08
2.327282951e-05
3.121269579e-08
2.309752099e-05
-3.120871067e-08
2.327158742e-05
2.309752954e-05
4.205226446e-08
8.873395799e-09
2.305148032e-05
-4.20698483e-08
9.209528994e-09
2.335039199e-05
8.875290744e-09
2.305145725e-05
4.235521082e-08
-7.348349381e-08
2.331563077e-05
-4.236207404e-08
-7.343053845e-08
2.361252028e-05
-7.348793312e-08
2.331563835e-05
4.24048347e-08
2.29844082e-05
-4.242504374e-08
2.328578926e-05
2.29843966e-05
4.919601935e-08
-3.153936664e-08
2.303556667e-05
-4.92559548e-08
-3.048103754e-08
2.348113752e-05
-3.152089e-08
2.30354655e-05
4.959697102e-08
-1.235672302e-07
2.33598512e-05
-4.961308044e-08
-1.229984387e-07
2.380614621e-05
-1.235727622e-07
2.335985867e-05
4.973902793e-08
2.28128073e-05
-4.978177055e-08
2.326407604e-05
2.281273852e-05
4.685814172e-08
-1.322732309e-07
2.311803209e-05
-4.692152357e-08
-1.297055902e-07
2.370197127e-05
-1.322611744e-07
2.311785061e-05
4.725627655e-08
-2.188743554e-07
2.339647266e-05
-4.727358173e-08
-2.169671849e-07
2.398549137e-05
-2.188829287e-07
2.339647879e-05
4.732593556e-08
2.254351788e-05
-4.737871942e-08
2.313902609e-05
2.254339016e-05
3.239969136e-08
-3.67638889e-07
-3.244014471e-08
-3.615876881e-07
-3.676342125e-07
3.224265106e-08
-4.348610871e-07
-3.22440487e-08
-4.293579536e-07
-4.348691761e-07
3.174638848e-08
-3.177741767e-08
)
;

boundaryField
{
    inlet
    {
        type            calculated;
        value           nonuniform List<scalar> 9(-2.321116755e-05 -2.321115217e-05 -2.321114011e-05 -2.321116601e-05 -2.321115065e-05 -2.321113854e-05 -2.321116755e-05 -2.321115217e-05 -2.321114011e-05);
    }
    outlet
    {
        type            calculated;
        value           nonuniform List<scalar> 9(2.344129903e-05 2.341989456e-05 2.206449308e-05 2.411707868e-05 2.410683817e-05 2.276144713e-05 2.344107122e-05 2.341991188e-05 2.206432311e-05);
    }
    walls
    {
        type            calculated;
        value           uniform 0;
    }
}


// ************************************************************************* //
