/*--------------------------------*- C++ -*----------------------------------*\
  =========                 |
  \\      /  F ield         | OpenFOAM: The Open Source CFD Toolbox
   \\    /   O peration     | Website:  https://openfoam.org
    \\  /    A nd           | Version:  7
     \\/     M anipulation  |
\*---------------------------------------------------------------------------*/
FoamFile
{
    version     2.0;
    format      ascii;
    class       volScalarField;
    location    "0.045";
    object      cpavg;
}
// * * * * * * * * * * * * * * * * * * * * * * * * * * * * * * * * * * * * * //

dimensions      [0 2 -2 -1 0 0 0];

internalField   nonuniform List<scalar> 
54
(
1011.620162
1011.620162
1011.620162
1011.620165
1011.620165
1011.620165
1011.620167
1011.620167
1011.620167
1011.635872
1011.635872
1011.635872
1011.635876
1011.635875
1011.635876
1011.63588
1011.635879
1011.63588
1011.662686
1011.662685
1011.662686
1011.662692
1011.662692
1011.662692
1011.6627
1011.662699
1011.6627
1011.693199
1011.693198
1011.693199
1011.69321
1011.693209
1011.69321
1011.693222
1011.693221
1011.693222
1011.71939
1011.719388
1011.71939
1011.719405
1011.719404
1011.719406
1011.719424
1011.719422
1011.719424
1011.734472
1011.73447
1011.734472
1011.734491
1011.734489
1011.734491
1011.734514
1011.734512
1011.734514
)
;

boundaryField
{
    inlet
    {
        type            calculated;
        value           uniform 1011.338357;
    }
    outlet
    {
        type            calculated;
        value           nonuniform List<scalar> 9(1011.879503 1011.875619 1011.883257 1011.873573 1011.869909 1011.877065 1011.87951 1011.87562 1011.883262);
    }
    walls
    {
        type            calculated;
        value           nonuniform List<scalar> 
72
(
1011.451708
1011.557982
1011.650387
1011.72913
1011.801819
1011.879503
1011.451924
1011.558062
1011.649905
1011.727571
1011.798518
1011.873573
1011.451708
1011.557982
1011.650387
1011.729132
1011.801824
1011.87951
1011.451707
1011.557897
1011.65033
1011.729374
1011.803001
1011.883257
1011.451924
1011.557975
1011.649843
1011.727794
1011.799618
1011.877065
1011.451707
1011.557896
1011.65033
1011.729376
1011.803004
1011.883262
1011.451708
1011.451924
1011.451707
1011.557982
1011.558017
1011.557896
1011.650387
1011.64987
1011.65033
1011.729132
1011.72769
1011.729376
1011.801824
1011.799142
1011.803004
1011.87951
1011.87562
1011.883262
1011.451708
1011.451924
1011.451707
1011.557982
1011.558017
1011.557897
1011.650387
1011.64987
1011.65033
1011.72913
1011.727689
1011.729374
1011.801819
1011.799142
1011.803001
1011.879503
1011.875619
1011.883257
)
;
    }
}


// ************************************************************************* //
