/*--------------------------------*- C++ -*----------------------------------*\
  =========                 |
  \\      /  F ield         | OpenFOAM: The Open Source CFD Toolbox
   \\    /   O peration     | Website:  https://openfoam.org
    \\  /    A nd           | Version:  7
     \\/     M anipulation  |
\*---------------------------------------------------------------------------*/
FoamFile
{
    version     2.0;
    format      ascii;
    class       volScalarField;
    location    "0.045";
    object      kappaavg;
}
// * * * * * * * * * * * * * * * * * * * * * * * * * * * * * * * * * * * * * //

dimensions      [1 1 -3 -1 0 0 0];

internalField   nonuniform List<scalar> 
54
(
0.02726347439
0.02726347431
0.0272634744
0.02726347719
0.02726347712
0.0272634772
0.02726348017
0.02726348009
0.02726348017
0.02728414619
0.02728414592
0.02728414621
0.02728415067
0.02728415039
0.02728415068
0.02728415569
0.02728415542
0.02728415571
0.02731937836
0.02731937767
0.02731937839
0.02731938641
0.02731938572
0.02731938644
0.02731939583
0.02731939514
0.02731939586
0.02735939445
0.02735939314
0.0273593945
0.02735940791
0.0273594066
0.02735940796
0.02735942399
0.02735942266
0.02735942403
0.02739367751
0.02739367548
0.02739367759
0.0273936971
0.02739369506
0.02739369717
0.0273937207
0.02739371864
0.02739372077
0.02741339185
0.02741338927
0.02741339193
0.02741341577
0.02741341319
0.02741341585
0.02741344474
0.02741344214
0.02741344482
)
;

boundaryField
{
    inlet
    {
        type            calculated;
        value           uniform 0.02688265352;
    }
    outlet
    {
        type            calculated;
        value           nonuniform List<scalar> 9(0.02760087552 0.02759597018 0.02760561366 0.02759338473 0.02758875189 0.0275977967 0.02760088485 0.02759597088 0.02760562013);
    }
    walls
    {
        type            calculated;
        value           nonuniform List<scalar> 
72
(
0.02703932376
0.02718304704
0.02730565644
0.02740849146
0.027502127
0.02760087552
0.02703961956
0.02718315294
0.02730502292
0.02740646965
0.02749790026
0.02759338473
0.02703932376
0.0271830461
0.02730565661
0.02740849312
0.02750213324
0.02760088485
0.02703932348
0.02718293202
0.02730558218
0.02740880782
0.02750363885
0.02760561366
0.02703961927
0.02718303725
0.0273049415
0.02740675797
0.02749930867
0.0275977967
0.02703932348
0.0271829314
0.02730558213
0.02740880955
0.02750364279
0.02760562013
0.02703932376
0.02703961939
0.02703932348
0.0271830461
0.02718309323
0.0271829314
0.02730565661
0.02730497652
0.02730558213
0.02740849312
0.027406623
0.02740880955
0.02750213324
0.02749869984
0.02750364279
0.02760088485
0.02759597088
0.02760562013
0.02703932376
0.02703961939
0.02703932348
0.02718304704
0.02718309328
0.02718293202
0.02730565644
0.02730497667
0.02730558218
0.02740849146
0.02740662214
0.02740880782
0.027502127
0.02749869908
0.02750363885
0.02760087552
0.02759597018
0.02760561366
)
;
    }
}


// ************************************************************************* //
