/*--------------------------------*- C++ -*----------------------------------*\
  =========                 |
  \\      /  F ield         | OpenFOAM: The Open Source CFD Toolbox
   \\    /   O peration     | Website:  https://openfoam.org
    \\  /    A nd           | Version:  7
     \\/     M anipulation  |
\*---------------------------------------------------------------------------*/
FoamFile
{
    version     2.0;
    format      ascii;
    class       volScalarField;
    location    "0.045";
    object      muavg;
}
// * * * * * * * * * * * * * * * * * * * * * * * * * * * * * * * * * * * * * //

dimensions      [1 -1 -1 0 0 0 0];

internalField   nonuniform List<scalar> 
54
(
1.860892411e-05
1.860892406e-05
1.860892412e-05
1.860892599e-05
1.860892594e-05
1.8608926e-05
1.860892798e-05
1.860892793e-05
1.860892799e-05
1.862276969e-05
1.862276951e-05
1.86227697e-05
1.862277269e-05
1.862277251e-05
1.86227727e-05
1.862277605e-05
1.862277587e-05
1.862277606e-05
1.864636654e-05
1.864636608e-05
1.864636656e-05
1.864637192e-05
1.864637146e-05
1.864637194e-05
1.864637822e-05
1.864637776e-05
1.864637824e-05
1.867316594e-05
1.867316506e-05
1.867316597e-05
1.867317494e-05
1.867317406e-05
1.867317498e-05
1.86731857e-05
1.867318481e-05
1.867318573e-05
1.869612458e-05
1.869612322e-05
1.869612463e-05
1.869613769e-05
1.869613632e-05
1.869613773e-05
1.869615348e-05
1.86961521e-05
1.869615352e-05
1.870932632e-05
1.87093246e-05
1.870932638e-05
1.870934233e-05
1.87093406e-05
1.870934238e-05
1.870936171e-05
1.870935997e-05
1.870936176e-05
)
;

boundaryField
{
    inlet
    {
        type            calculated;
        value           uniform 1.835366622e-05;
    }
    outlet
    {
        type            calculated;
        value           nonuniform List<scalar> 9(1.88348344e-05 1.883155287e-05 1.8838004e-05 1.882982326e-05 1.882672393e-05 1.883277477e-05 1.883484064e-05 1.883155334e-05 1.883800833e-05);
    }
    walls
    {
        type            calculated;
        value           nonuniform List<scalar> 
72
(
1.845874451e-05
1.855508212e-05
1.863722329e-05
1.870608529e-05
1.876876176e-05
1.88348344e-05
1.845894284e-05
1.855515309e-05
1.863679897e-05
1.870473169e-05
1.876593304e-05
1.882982326e-05
1.845874451e-05
1.855508149e-05
1.86372234e-05
1.87060864e-05
1.876876594e-05
1.883484064e-05
1.845874432e-05
1.855500505e-05
1.863717355e-05
1.870629709e-05
1.876977354e-05
1.8838004e-05
1.845894265e-05
1.855507556e-05
1.863674444e-05
1.870492472e-05
1.876687562e-05
1.883277477e-05
1.845874432e-05
1.855500463e-05
1.863717352e-05
1.870629825e-05
1.876977618e-05
1.883800833e-05
1.845874451e-05
1.845894273e-05
1.845874432e-05
1.855508149e-05
1.855511308e-05
1.855500463e-05
1.86372234e-05
1.863676789e-05
1.863717352e-05
1.87060864e-05
1.870483436e-05
1.870629825e-05
1.876876594e-05
1.876646816e-05
1.876977618e-05
1.883484064e-05
1.883155334e-05
1.883800833e-05
1.845874451e-05
1.845894273e-05
1.845874432e-05
1.855508212e-05
1.855511311e-05
1.855500505e-05
1.863722329e-05
1.863676799e-05
1.863717355e-05
1.870608529e-05
1.870483378e-05
1.870629709e-05
1.876876176e-05
1.876646765e-05
1.876977354e-05
1.88348344e-05
1.883155287e-05
1.8838004e-05
)
;
    }
}


// ************************************************************************* //
