/*--------------------------------*- C++ -*----------------------------------*\
  =========                 |
  \\      /  F ield         | OpenFOAM: The Open Source CFD Toolbox
   \\    /   O peration     | Website:  https://openfoam.org
    \\  /    A nd           | Version:  7
     \\/     M anipulation  |
\*---------------------------------------------------------------------------*/
FoamFile
{
    version     2.0;
    format      ascii;
    class       volScalarField;
    location    "0.045";
    object      p;
}
// * * * * * * * * * * * * * * * * * * * * * * * * * * * * * * * * * * * * * //

dimensions      [1 -1 -2 0 0 0 0];

internalField   nonuniform List<scalar> 
54
(
101329.1454
101329.1387
101329.1454
101329.0783
101329.0716
101329.0783
101329.0256
101329.0188
101329.0256
101327.6121
101327.6076
101327.6121
101327.5453
101327.5408
101327.5453
101327.4886
101327.4839
101327.4886
101326.4435
101326.4392
101326.4435
101326.3778
101326.3733
101326.3778
101326.322
101326.3174
101326.322
101325.8573
101325.8541
101325.8573
101325.7971
101325.7937
101325.7971
101325.7443
101325.7406
101325.7443
101325.517
101325.5157
101325.517
101325.4678
101325.4663
101325.4678
101325.4202
101325.4184
101325.4202
101325.1946
101325.1958
101325.1946
101325.1641
101325.1652
101325.1641
101325.1298
101325.1306
101325.1298
)
;

boundaryField
{
    inlet
    {
        type            zeroGradient;
    }
    outlet
    {
        type            totalPressure;
        rho             rho;
        psi             none;
        gamma           1;
        p0              uniform 101325;
        value           uniform 101325;
    }
    walls
    {
        type            zeroGradient;
    }
}


// ************************************************************************* //
