/*--------------------------------*- C++ -*----------------------------------*\
  =========                 |
  \\      /  F ield         | OpenFOAM: The Open Source CFD Toolbox
   \\    /   O peration     | Website:  https://openfoam.org
    \\  /    A nd           | Version:  7
     \\/     M anipulation  |
\*---------------------------------------------------------------------------*/
FoamFile
{
    version     2.0;
    format      ascii;
    class       volScalarField::Internal;
    location    "0.045";
    object      steelCloud:UCoeff;
}
// * * * * * * * * * * * * * * * * * * * * * * * * * * * * * * * * * * * * * //

dimensions      [1 0 0 0 0 0 0];

value           nonuniform List<scalar> 
54
(
3.494733054e-08
3.501434153e-08
3.494733054e-08
3.501434153e-08
3.508912687e-08
3.501434153e-08
3.494733054e-08
3.501434153e-08
3.494733054e-08
3.242836502e-08
3.249775588e-08
3.242836502e-08
3.249775588e-08
3.257784698e-08
3.249775588e-08
3.242836502e-08
3.249775588e-08
3.242836502e-08
2.772485179e-08
2.777241978e-08
2.772485179e-08
2.777241978e-08
2.782583144e-08
2.777241978e-08
2.772485179e-08
2.777241978e-08
2.772485179e-08
2.223100339e-08
2.225516962e-08
2.223100339e-08
2.225516962e-08
2.228144347e-08
2.225516962e-08
2.223100339e-08
2.225516962e-08
2.223100339e-08
1.759922437e-08
1.760951902e-08
1.759922437e-08
1.760951902e-08
1.762041824e-08
1.760951902e-08
1.759922437e-08
1.760951902e-08
1.759922437e-08
1.500852463e-08
1.501324787e-08
1.500852464e-08
1.501324787e-08
1.501814803e-08
1.501324787e-08
1.500852464e-08
1.501324787e-08
1.500852464e-08
)
;


// ************************************************************************* //
