/*--------------------------------*- C++ -*----------------------------------*\
  =========                 |
  \\      /  F ield         | OpenFOAM: The Open Source CFD Toolbox
   \\    /   O peration     | Website:  https://openfoam.org
    \\  /    A nd           | Version:  7
     \\/     M anipulation  |
\*---------------------------------------------------------------------------*/
FoamFile
{
    version     2.0;
    format      ascii;
    class       volScalarField;
    location    "0.045";
    object      T;
}
// * * * * * * * * * * * * * * * * * * * * * * * * * * * * * * * * * * * * * //

dimensions      [0 0 0 1 0 0 0];

internalField   nonuniform List<scalar> 
54
(
300.004601
300.0083899
300.0046009
300.0083877
300.0126168
300.0083877
300.0045972
300.0083861
300.0045972
301.8563582
301.8577546
301.8563526
301.8569575
301.8596226
301.8569568
301.8548269
301.8562065
301.854823
303.4276553
303.4200355
303.4276524
303.4193142
303.4136011
303.4193124
303.4264473
303.4187395
303.4264442
304.6979561
304.6746199
304.6979637
304.6761041
304.6551751
304.676107
304.7010599
304.6773921
304.7010675
305.7652504
305.7189752
305.7652899
305.7273887
305.6840494
305.7273941
305.7810439
305.7336243
305.7810709
306.798644
306.7196774
306.7987195
306.7466468
306.6709417
306.7466543
306.8477604
306.7651999
306.8478138
)
;

boundaryField
{
    inlet
    {
        type            fixedValue;
        value           uniform 298;
    }
    outlet
    {
        type            zeroGradient;
    }
    walls
    {
        type            zeroGradient;
    }
}


// ************************************************************************* //
