/*--------------------------------*- C++ -*----------------------------------*\
  =========                 |
  \\      /  F ield         | OpenFOAM: The Open Source CFD Toolbox
   \\    /   O peration     | Website:  https://openfoam.org
    \\  /    A nd           | Version:  7
     \\/     M anipulation  |
\*---------------------------------------------------------------------------*/
FoamFile
{
    version     2.0;
    format      ascii;
    class       volScalarField;
    location    "0.045";
    object      Tavg;
}
// * * * * * * * * * * * * * * * * * * * * * * * * * * * * * * * * * * * * * //

dimensions      [0 0 0 1 0 0 0];

internalField   nonuniform List<scalar> 
54
(
302.8151258
302.8151248
302.8151259
302.8151615
302.8151606
302.8151617
302.8151994
302.8151984
302.8151995
303.0771396
303.0771361
303.0771398
303.0771965
303.0771931
303.0771967
303.0772605
303.077257
303.0772607
303.5237649
303.5237562
303.5237653
303.5238673
303.5238586
303.5238677
303.5239871
303.5239783
303.5239875
304.031124
304.0311073
304.0311246
304.0312952
304.0312785
304.0312958
304.0314996
304.0314827
304.0315002
304.4658706
304.4658447
304.4658715
304.4661197
304.4660937
304.4661205
304.4664199
304.4663937
304.4664207
304.7159022
304.7158695
304.7159033
304.7162065
304.7161737
304.7162076
304.7165751
304.7165419
304.7165761
)
;

boundaryField
{
    inlet
    {
        type            fixedValue;
        value           uniform 298;
    }
    outlet
    {
        type            zeroGradient;
    }
    walls
    {
        type            zeroGradient;
    }
}


// ************************************************************************* //
