/*--------------------------------*- C++ -*----------------------------------*\
  =========                 |
  \\      /  F ield         | OpenFOAM: The Open Source CFD Toolbox
   \\    /   O peration     | Website:  https://openfoam.org
    \\  /    A nd           | Version:  7
     \\/     M anipulation  |
\*---------------------------------------------------------------------------*/
FoamFile
{
    version     2.0;
    format      ascii;
    class       volVectorField;
    location    "0.045";
    object      U;
}
// * * * * * * * * * * * * * * * * * * * * * * * * * * * * * * * * * * * * * //

dimensions      [0 1 -1 0 0 0 0];

internalField   nonuniform List<vector> 
54
(
(1.712429409 0.001652850766 -0.007627093539)
(1.719465495 4.096658793e-07 -0.007672317743)
(1.712429972 -0.001651454715 -0.007627311786)
(1.719860201 0.001628785906 0.00347603977)
(1.727059193 1.855746033e-07 0.003496795948)
(1.719860578 -0.001627593664 0.0034759859)
(1.713185595 0.001646455238 -0.01111273724)
(1.720238596 3.386657045e-07 -0.01111686524)
(1.71318611 -0.001645124682 -0.01111259356)
(1.802475548 0.002962928005 -0.01506985759)
(1.814334355 -7.250965056e-07 -0.0151259917)
(1.802477224 -0.002960956017 -0.01506943185)
(1.814902907 0.002941246586 0.008214870309)
(1.826769689 -3.280943236e-07 0.008275972173)
(1.814903429 -0.002938862142 0.008214983821)
(1.803489825 0.002934376477 -0.02135723949)
(1.815398431 -5.665347314e-07 -0.02140027428)
(1.80349092 -0.002932250668 -0.02135745654)
(1.779335389 0.004161493116 -0.02275384349)
(1.797816721 -2.331957789e-06 -0.02280139853)
(1.779335555 -0.004159016174 -0.02275334441)
(1.797048846 0.004151601483 0.01324278575)
(1.815499691 -1.787528009e-06 0.01337619724)
(1.797049522 -0.004148583597 0.01324262766)
(1.777712911 0.004093327724 -0.03166747998)
(1.796307132 -2.413018693e-06 -0.03176739664)
(1.777713427 -0.004090949019 -0.0316680771)
(1.657958375 0.005037263042 -0.03179368731)
(1.684402714 -4.832720662e-06 -0.03182491766)
(1.657954499 -0.00503517639 -0.03179220723)
(1.679800031 0.005022953073 0.01678961741)
(1.706264842 -2.98648925e-06 0.01704402103)
(1.679800541 -0.005019000484 0.01679028024)
(1.649302224 0.004910276514 -0.04262364194)
(1.675994426 -4.111719252e-06 -0.04275969365)
(1.649299737 -0.004907471838 -0.04262481562)
(1.551223598 0.005393540053 -0.04348975703)
(1.585706617 -5.686028108e-06 -0.04347345535)
(1.551214499 -0.00539045737 -0.0434883919)
(1.573127789 0.005343231558 0.01606410677)
(1.607796276 -3.627036345e-06 0.01652395749)
(1.573128026 -0.005338082818 0.01606453548)
(1.527630933 0.005150353741 -0.05496599411)
(1.562637394 -5.140573729e-06 -0.05510263532)
(1.527624424 -0.005146741856 -0.0549676463)
(1.50577419 0.005015048424 -0.05959414049)
(1.548544498 -5.166665929e-06 -0.05949156761)
(1.505760039 -0.005010018815 -0.05959357015)
(1.511518525 0.00491087282 0.005678015319)
(1.554955042 -3.425185368e-06 0.006513825591)
(1.51151973 -0.004904069405 0.00567821315)
(1.433763896 0.004651144679 -0.0710506137)
(1.477795851 -4.759916672e-06 -0.07110267148)
(1.433753604 -0.00464569276 -0.07105225322)
)
;

boundaryField
{
    inlet
    {
        type            interstitialInletVelocity;
        inletVelocity   uniform (1.23 0 0);
        value           nonuniform List<vector> 9((1.939284562 0 0) (1.941431252 0 0) (1.939284562 0 0) (1.941431252 0 0) (1.943832612 0 0) (1.941431252 0 0) (1.939284562 0 0) (1.941431252 0 0) (1.939284562 0 0));
    }
    outlet
    {
        type            pressureInletOutletVelocity;
        phi             alphaRhoPhi;
        value           nonuniform List<vector> 9((1.50577419 0.005015048424 -0.05959414049) (1.511518525 0.00491087282 0.005678015319) (1.433763896 0.004651144679 -0.0710506137) (1.548544498 -5.166665929e-06 -0.05949156761) (1.554955042 -3.425185368e-06 0.006513825591) (1.477795851 -4.759916672e-06 -0.07110267148) (1.505760039 -0.005010018815 -0.05959357015) (1.51151973 -0.004904069405 0.00567821315) (1.433753604 -0.00464569276 -0.07105225322));
    }
    walls
    {
        type            noSlip;
    }
}


// ************************************************************************* //
