/*--------------------------------*- C++ -*----------------------------------*\
  =========                 |
  \\      /  F ield         | OpenFOAM: The Open Source CFD Toolbox
   \\    /   O peration     | Website:  https://openfoam.org
    \\  /    A nd           | Version:  7
     \\/     M anipulation  |
\*---------------------------------------------------------------------------*/
FoamFile
{
    version     2.0;
    format      ascii;
    class       vectorField;
    location    "2/lagrangian/steelCloud";
    object      angularMomentum;
}
// * * * * * * * * * * * * * * * * * * * * * * * * * * * * * * * * * * * * * //


396
(
(1.340691419e-11 3.864198626e-11 4.239804642e-11)
(-1.4334273e-11 6.363936117e-11 -3.891650046e-11)
(1.782478449e-11 6.356961641e-11 4.295614685e-11)
(-1.599052112e-11 1.078338219e-12 8.685411023e-09)
(3.589251264e-11 -6.511348703e-11 -8.691965146e-09)
(-7.324003908e-12 7.919707523e-12 8.69204701e-09)
(-2.02919915e-11 2.548227554e-12 5.053454335e-09)
(-1.317855026e-12 9.836686689e-11 -8.250701071e-08)
(-8.690747165e-12 -1.202756185e-10 8.264983257e-08)
(2.358328864e-11 2.456835763e-11 -2.47192018e-11)
(-4.120090719e-11 -5.917513837e-11 -9.1418715e-12)
(-2.121581486e-11 3.372146571e-11 -4.588652425e-11)
(-5.496302954e-11 1.647405702e-11 -8.669822315e-09)
(5.289974121e-11 1.352839939e-10 8.643770783e-09)
(1.533501921e-11 -2.06359155e-11 -8.672290333e-09)
(3.834124511e-11 8.219192513e-12 -5.133029911e-09)
(-4.354032055e-11 -1.622304676e-10 8.256125136e-08)
(-1.352357875e-11 1.614782972e-11 -8.259255697e-08)
(1.241668634e-11 5.59175689e-12 6.960019093e-11)
(6.373100043e-12 2.387718237e-11 -1.12825488e-11)
(-1.196348985e-11 -3.268299933e-11 3.773741973e-12)
(-1.885898443e-11 -3.788073206e-11 8.633800432e-09)
(8.354904703e-12 -7.2561189e-11 -8.682105236e-09)
(5.365751058e-12 -9.366874556e-12 8.721066946e-09)
(-7.018080084e-12 3.965724272e-11 5.127344924e-09)
(-1.437928807e-11 8.415797705e-11 -8.254562296e-08)
(-2.687495119e-11 9.988354499e-11 8.256667238e-08)
(8.732255081e-12 -9.054003798e-11 2.452048817e-11)
(-1.399865724e-11 -9.372575193e-11 1.723571663e-11)
(1.998255867e-11 -3.650892877e-11 7.906063378e-12)
(-4.375842039e-11 4.050878677e-11 -8.640537342e-09)
(2.397465526e-11 2.894542312e-11 8.682856564e-09)
(-4.929268659e-11 7.88387526e-12 -8.745846115e-09)
(3.896034482e-11 -2.809025698e-11 -5.131065078e-09)
(-2.732119281e-11 -6.537682257e-12 8.260302991e-08)
(3.189670569e-11 -2.748177418e-11 -8.262762999e-08)
(-3.678538889e-11 -7.673542412e-11 5.411417247e-11)
(-4.592331238e-11 -8.912700045e-11 1.501131169e-11)
(1.827334286e-11 -5.203080656e-11 -6.862185025e-11)
(6.601768802e-11 -6.964362572e-12 8.642249522e-09)
(-4.542352486e-12 1.787971107e-11 -8.707478607e-09)
(6.553130563e-11 -7.050140396e-12 8.729940535e-09)
(-1.883339329e-11 -5.557402391e-12 5.133544674e-09)
(-5.580635778e-12 1.085105739e-11 -8.272409701e-08)
(5.600124391e-13 2.458383829e-11 8.278567497e-08)
(-3.530626201e-11 -9.678757044e-11 -1.836301123e-11)
(2.298823098e-11 -2.658315358e-12 4.032009871e-12)
(-7.228495252e-13 -5.554061123e-11 6.869952395e-11)
(-2.60313375e-12 9.436458495e-11 -8.651778006e-09)
(6.895200346e-12 -8.221634462e-11 8.721663724e-09)
(-5.107868855e-11 4.209587438e-11 -8.72346759e-09)
(-3.163244475e-11 -1.362066161e-11 -5.155866447e-09)
(5.152711109e-12 1.167622576e-10 8.263974753e-08)
(2.870477362e-11 1.56386844e-11 -8.269455166e-08)
(3.683206924e-11 4.338589193e-11 -3.319259017e-12)
(-6.248923089e-11 -1.407075191e-10 3.081428957e-11)
(1.022987959e-11 -4.931279573e-11 -4.793700155e-11)
(-3.256115609e-11 -8.5103696e-11 8.6962886e-09)
(7.596776028e-11 1.012168552e-10 -8.746603077e-09)
(-3.668237788e-11 -1.36029638e-11 8.71995507e-09)
(-2.462978196e-11 6.073959998e-11 5.162269821e-09)
(-9.090434999e-11 -1.113134001e-10 -8.272926106e-08)
(3.986255582e-11 1.819244678e-11 8.272984926e-08)
(-4.569438609e-11 8.210395851e-11 4.794228199e-11)
(-1.548366104e-11 1.439585489e-10 -4.072636868e-12)
(2.144857404e-11 6.184850479e-11 4.604691959e-11)
(2.143114642e-11 -6.84944286e-13 -8.711460944e-09)
(1.224324772e-11 -1.653375327e-10 8.689321636e-09)
(5.23782472e-12 -4.334091658e-11 -8.690937793e-09)
(1.08743414e-11 -3.335918103e-11 -5.283303094e-09)
(-7.203193838e-11 9.680418087e-11 8.261462409e-08)
(1.656114502e-11 4.132404306e-11 -8.260162758e-08)
(-5.738555207e-12 6.897883278e-11 1.183172044e-11)
(-4.671871031e-11 -6.073699507e-11 1.597735936e-11)
(4.61980618e-11 4.900907702e-12 -2.696296721e-11)
(-4.840857033e-11 -1.141243456e-10 8.711052807e-09)
(-1.629342079e-12 7.796866491e-11 -8.631271254e-09)
(3.282525084e-11 -2.118807308e-11 8.56352601e-09)
(5.153599298e-11 3.719870135e-11 5.273399554e-09)
(3.08570694e-11 -1.49103732e-11 -8.257671819e-08)
(-1.066921068e-10 8.035687358e-11 8.258679661e-08)
(5.644763528e-11 -1.800398461e-10 -6.644894636e-12)
(1.168839222e-11 1.644067084e-10 -2.323415172e-11)
(3.161415681e-11 8.262399852e-11 -8.997639802e-11)
(-7.563037014e-11 3.248380101e-10 -8.680466884e-09)
(-3.320748775e-11 -2.881723514e-11 8.627757885e-09)
(-3.216813737e-11 1.20473911e-10 -8.549923382e-09)
(1.743109407e-10 -2.209443428e-10 -7.571055331e-10)
(1.501724454e-11 -7.043281878e-11 8.261946902e-08)
(5.820817789e-13 -1.434292071e-10 -8.269323856e-08)
(5.658804729e-11 2.230439989e-10 1.052873287e-07)
(4.084566678e-11 1.507004856e-10 -1.053848907e-07)
(-3.904992346e-11 1.89168631e-10 1.052387886e-07)
(-6.780171214e-12 -2.47953628e-10 8.64826035e-09)
(3.348972411e-11 -9.808548155e-11 -8.68303124e-09)
(3.479815984e-11 -2.999225757e-10 8.678402037e-09)
(2.639079724e-11 2.166812329e-10 8.035059594e-08)
(-5.571196586e-11 4.92523681e-11 -8.263698858e-08)
(1.280856098e-11 1.586944888e-10 8.279403804e-08)
(-1.300894511e-11 3.740824409e-11 -2.557128685e-11)
(2.72211779e-11 1.003898795e-11 4.383045426e-11)
(-1.652402523e-11 5.214560309e-11 -3.742748145e-12)
(-4.928542364e-12 4.01948912e-11 -8.617259233e-09)
(-6.942216721e-13 3.888957943e-12 8.520982145e-09)
(1.095012718e-11 -3.65679089e-11 -8.384568363e-09)
(5.011459231e-12 -8.88591354e-11 -8.266377786e-08)
(-2.092141505e-11 4.30883256e-11 8.257889983e-08)
(-1.299566859e-12 2.834181357e-11 -8.262348789e-08)
(-7.88658525e-12 -6.419046843e-11 3.590739954e-11)
(-5.672919909e-12 -9.266354367e-12 9.793043713e-13)
(2.772858554e-11 -2.825167209e-11 -4.129417648e-11)
(4.46875899e-12 1.23048137e-10 8.570522997e-09)
(1.459857012e-11 3.940088825e-11 -8.411753747e-09)
(3.523453442e-12 1.441197543e-10 8.351426658e-09)
(-8.270311855e-14 -1.416561633e-10 8.260542346e-08)
(3.300557896e-12 -5.576942998e-11 -8.257281612e-08)
(-4.249252716e-11 -1.869850968e-10 8.260352161e-08)
(2.785688583e-12 6.788318016e-11 -4.985470414e-11)
(1.01639512e-11 -1.588241586e-12 4.425782335e-12)
(-2.581151187e-11 1.010661895e-11 3.304619827e-11)
(-2.212635353e-11 -1.587594907e-10 -8.640237272e-09)
(-1.434217114e-11 -4.169407807e-11 8.481248181e-09)
(2.566273438e-11 -1.109485745e-10 -8.336156899e-09)
(1.782010138e-11 2.28692345e-10 -8.260974638e-08)
(-1.565512814e-11 6.125601949e-11 8.264443195e-08)
(-5.059905903e-12 1.389210165e-10 -8.265457625e-08)
(5.247865998e-12 -1.497020142e-10 -3.894548257e-12)
(6.196635908e-12 -6.138503059e-11 -3.836164291e-11)
(2.188534574e-12 -8.753191737e-11 2.875873904e-11)
(7.660972153e-12 1.487088668e-10 8.614070642e-09)
(-1.014649975e-11 4.223909485e-11 -8.549038797e-09)
(-2.059872577e-11 5.460613195e-11 8.424879495e-09)
(-3.335679982e-11 -1.675248604e-10 8.26614631e-08)
(-1.896454657e-11 -3.792621241e-11 -8.275875096e-08)
(9.700806747e-12 -8.917945406e-11 8.259270766e-08)
(-2.21364156e-11 -6.205670658e-11 8.701872706e-12)
(3.805161246e-11 -9.303696708e-11 1.008253954e-11)
(-4.092101639e-12 -3.454506443e-11 -3.934793223e-11)
(8.736063538e-11 -1.881108106e-11 -8.609167302e-09)
(-4.713065947e-11 1.247166239e-11 8.629079556e-09)
(3.972648791e-12 -6.206893652e-11 -8.413476294e-09)
(-1.300093059e-11 8.151093895e-11 -8.282363525e-08)
(-2.331408297e-13 2.02542917e-11 8.280432051e-08)
(-1.805895169e-11 5.580200991e-11 -8.277821673e-08)
(-9.224388692e-12 7.353336925e-11 -2.660364097e-11)
(1.501968622e-11 7.622847397e-12 -1.661213826e-12)
(-8.627153103e-12 -3.301438778e-11 -9.162494694e-12)
(1.149711571e-11 -8.188649202e-11 8.657458143e-09)
(-4.939471751e-11 -3.93559514e-11 -8.556232603e-09)
(9.804770612e-12 6.827480308e-11 8.421930264e-09)
(-2.241440549e-11 8.590091734e-11 8.289122235e-08)
(5.596423491e-11 5.704806558e-11 -8.285284626e-08)
(-7.077848196e-13 -1.219231556e-11 8.296440989e-08)
(8.958252702e-12 -1.629573424e-10 2.97070811e-11)
(-4.011520449e-11 -7.7413209e-11 1.000041857e-11)
(7.666371512e-11 -6.892583885e-11 1.01871268e-11)
(4.398424475e-11 8.645861048e-11 -8.594291088e-09)
(-7.860924923e-12 9.051828434e-11 8.510622298e-09)
(-9.883367796e-11 1.692881741e-11 -8.441648125e-09)
(-7.338075261e-11 -5.61165885e-11 -8.279781782e-08)
(1.999499674e-11 -1.676258607e-11 8.285606668e-08)
(1.881671056e-11 6.719334613e-11 -8.286393844e-08)
(-5.311570664e-11 1.150223166e-10 -3.394377567e-11)
(1.029117539e-11 8.240210687e-11 2.457467485e-11)
(-1.848779272e-11 6.930546878e-11 -8.502545325e-12)
(6.556303761e-11 -1.265005679e-10 8.561582264e-09)
(-2.193795766e-11 -7.421334914e-11 -8.534420312e-09)
(8.657664188e-11 -3.04681169e-11 8.433460829e-09)
(3.762480213e-11 5.925942448e-11 8.261523575e-08)
(-9.914249294e-11 7.354724086e-12 -8.267538385e-08)
(-1.082656035e-10 2.819633615e-11 8.269511666e-08)
(5.610073905e-11 -1.207370522e-10 -6.64758977e-11)
(-6.877482531e-11 -8.739298877e-11 7.920704376e-11)
(4.484835666e-11 -1.262623605e-10 -3.178528062e-11)
(-3.905464991e-11 1.452017255e-10 -8.586870012e-09)
(9.686548515e-11 3.555241325e-11 8.545545657e-09)
(-2.353043152e-11 4.544609575e-11 -8.437475354e-09)
(4.042850754e-11 -8.275009008e-11 -8.257600401e-08)
(-1.919764824e-11 2.853048932e-11 8.239062505e-08)
(-3.53049516e-11 -1.43931309e-11 -8.256349748e-08)
(-1.381090764e-12 3.344675052e-10 3.766399544e-11)
(8.876110412e-12 3.636517089e-11 -6.234388992e-11)
(-7.334863485e-12 1.339569462e-10 6.092548593e-11)
(2.827402106e-11 -1.055775946e-10 8.604096594e-09)
(6.090700897e-12 5.636778507e-11 -8.525988309e-09)
(-2.372508217e-11 5.937166304e-11 8.581420305e-09)
(-9.147474582e-13 -5.093638305e-11 8.261039704e-08)
(7.777056222e-11 -3.308789837e-11 -8.249076929e-08)
(3.118514894e-11 -5.597834256e-11 8.256898583e-08)
(6.48082509e-11 -1.695486081e-11 -1.051641507e-07)
(2.751766926e-11 6.240613009e-11 1.051704529e-07)
(-9.895533228e-11 -6.673077695e-11 -2.421527323e-07)
(-6.412024562e-11 -4.020638466e-10 -8.556941333e-09)
(-3.087053117e-11 -1.420145259e-10 8.510392773e-09)
(1.114002093e-10 -9.448209062e-11 -8.568057233e-09)
(-1.774969822e-12 8.563924818e-11 -8.267873372e-08)
(3.103666225e-11 1.084655788e-10 8.569539372e-08)
(-5.391675989e-13 8.831992939e-12 -8.745913024e-08)
(5.012592225e-11 7.768358901e-11 4.071031952e-09)
(-2.57002983e-11 -7.786070655e-11 -4.014517424e-09)
(3.906939595e-11 1.201723159e-10 4.081145141e-09)
(-1.432864063e-11 -5.286419806e-11 1.25892915e-08)
(-4.652086589e-13 5.523333224e-11 -1.160276049e-07)
(-1.998343065e-11 -4.061303036e-11 1.160872622e-07)
(-1.415792783e-11 -5.011235843e-11 1.834219032e-07)
(2.933184272e-11 -6.9556564e-11 -1.834007289e-07)
(-1.909881993e-11 5.998702837e-11 1.831813004e-07)
(-4.455133677e-11 -3.175314103e-11 -4.04816815e-09)
(9.065230422e-12 1.544771289e-10 4.051375702e-09)
(-7.136653476e-12 1.623091322e-11 -4.064702761e-09)
(6.719168039e-11 -1.804837419e-11 -1.261238721e-08)
(2.654621368e-12 -1.676522541e-10 1.160463444e-07)
(1.235735407e-12 -1.468152726e-11 -1.160751647e-07)
(-8.260382818e-11 2.982325006e-11 -1.83425186e-07)
(2.08527199e-11 1.422526441e-10 1.833963012e-07)
(-1.015240627e-11 3.072750628e-11 -1.831158995e-07)
(-1.427641185e-11 -4.778875779e-11 4.047212152e-09)
(7.377658359e-12 -1.268350196e-10 -4.086382984e-09)
(2.4703294e-11 -1.531595204e-10 4.131566667e-09)
(5.889812921e-12 5.955557965e-11 1.266390869e-08)
(-7.018217771e-12 1.334428247e-10 -1.160826496e-07)
(-1.293149157e-11 1.378082684e-10 1.161426618e-07)
(1.822408866e-11 -4.236903959e-11 1.834296463e-07)
(-1.380128696e-11 -1.452946172e-10 -1.83422814e-07)
(7.756065286e-13 -8.819676703e-11 1.831527558e-07)
(-6.11883016e-12 4.222889734e-11 -4.119600319e-09)
(9.006551047e-12 4.859382725e-11 4.158229366e-09)
(-1.633408426e-11 1.134646924e-10 -4.210410066e-09)
(-2.662346372e-11 4.19615337e-11 -1.268257946e-08)
(1.246527599e-11 -3.865693512e-12 1.160533665e-07)
(-1.088200667e-11 -6.827204309e-11 -1.161417632e-07)
(-1.446895824e-11 -5.22211863e-11 -1.834183515e-07)
(-1.13506092e-11 1.076006819e-11 1.834193838e-07)
(2.956260836e-12 5.266724352e-11 -1.831810586e-07)
(-2.49232981e-11 7.008895317e-11 4.137226005e-09)
(2.087495199e-11 6.462326766e-11 -4.181221487e-09)
(-5.720453916e-11 9.76260301e-12 4.129538421e-09)
(9.722011126e-12 -4.017027536e-11 1.266485814e-08)
(-1.387410944e-11 -5.067212471e-11 -1.160893974e-07)
(3.026989995e-11 2.333937606e-11 1.161314761e-07)
(4.671927837e-11 1.732477391e-11 1.834084331e-07)
(6.402810999e-11 4.112460672e-11 -1.834088525e-07)
(-4.324650251e-11 -3.138784813e-11 1.831491751e-07)
(9.018744924e-12 -3.965954264e-11 -4.061215046e-09)
(-3.475926977e-12 -6.759930936e-11 4.140267433e-09)
(3.390271861e-11 2.233558968e-11 -4.097822373e-09)
(8.001676775e-11 5.24107233e-11 -1.271604085e-08)
(-4.997232591e-11 1.07063839e-10 1.160897256e-07)
(-1.760375008e-11 -1.79982595e-11 -1.161531608e-07)
(-8.754009305e-11 -4.708790902e-11 -1.834086136e-07)
(2.78849655e-11 -1.098101954e-10 1.834613034e-07)
(1.693437544e-11 -4.17848187e-11 -1.831572237e-07)
(4.805185293e-11 9.537306922e-13 4.149849734e-09)
(-1.564412095e-11 1.457001211e-10 -4.113367057e-09)
(-1.263889976e-11 -2.757843327e-12 4.045335608e-09)
(-1.811545857e-11 -3.991298484e-11 1.274456612e-08)
(8.144571632e-11 -1.760311587e-10 -1.161063915e-07)
(-4.560342686e-11 6.144216965e-12 1.161294264e-07)
(5.755167149e-11 3.661027164e-11 1.834202948e-07)
(-7.826762774e-11 9.174155269e-11 -1.834499449e-07)
(5.181100228e-11 6.872892359e-11 1.831470824e-07)
(-6.740211591e-11 -4.282492281e-12 -4.148507911e-09)
(6.918838216e-11 -5.063258607e-11 4.055224381e-09)
(-1.069940193e-11 4.455905208e-11 -4.010422046e-09)
(9.322871968e-11 8.35372658e-11 -1.282109008e-08)
(-3.261971625e-12 -2.359457726e-12 1.160790626e-07)
(-1.260917578e-11 -1.374192514e-10 -1.160056528e-07)
(-4.631378276e-11 -1.446292361e-10 -1.834781967e-07)
(9.067460717e-12 3.464460824e-11 1.834879253e-07)
(1.874438523e-11 1.174327289e-10 -1.831706047e-07)
(-4.230339033e-12 3.421939833e-11 4.090983599e-09)
(5.750317054e-12 -1.279351967e-12 -4.161795179e-09)
(-1.927705104e-11 -8.478008333e-11 4.210471581e-09)
(-7.208124787e-11 -7.731775344e-11 1.27398066e-08)
(-8.561204592e-11 2.789800731e-11 -1.161542294e-07)
(6.810645521e-11 5.675076141e-11 1.16054644e-07)
(8.094413628e-11 1.506999202e-10 1.834970081e-07)
(4.873631512e-11 -2.083604756e-10 -1.834663759e-07)
(5.615829301e-12 -2.664333903e-10 1.83126865e-07)
(-1.635200537e-11 8.978352734e-12 -4.172708651e-09)
(9.291719251e-12 6.853506795e-11 4.224742925e-09)
(-3.227090809e-11 3.302728502e-11 -4.232976991e-09)
(-1.2304985e-10 1.252222834e-10 -1.286174106e-08)
(2.596741052e-11 -6.302738778e-11 1.161751584e-07)
(-8.45290869e-12 2.29765416e-11 -1.161739997e-07)
(2.419887368e-11 -1.875269183e-10 -1.834266804e-07)
(2.703190059e-11 1.428570106e-10 1.834066303e-07)
(7.419201053e-11 1.820451743e-11 -1.831183867e-07)
(-1.178999567e-10 -1.082581681e-10 4.420691223e-09)
(6.156445835e-11 -6.680051297e-11 -4.25060322e-09)
(4.264492184e-11 9.510729002e-11 4.08414754e-09)
(1.048501044e-10 -7.392911729e-11 1.160695659e-07)
(-5.846050107e-11 7.254176217e-11 -1.162558979e-07)
(2.25510099e-11 -1.963444605e-10 1.161430798e-07)
(-3.39029307e-11 2.381474462e-10 1.834579033e-07)
(6.036492984e-11 -3.114855938e-11 -1.832897907e-07)
(-1.228231402e-10 2.472854349e-10 1.832324046e-07)
(-7.13430532e-12 6.436173508e-11 -4.031314373e-09)
(2.028832548e-11 -5.101761716e-12 4.031606682e-09)
(7.124149934e-12 8.212113997e-12 -3.494531779e-09)
(-1.066213979e-11 -9.432711095e-11 -1.162108018e-07)
(-3.182740262e-11 5.160945068e-11 1.16310701e-07)
(3.352275825e-12 -3.270053433e-11 -1.163598056e-07)
(2.182972457e-11 1.41377993e-10 -1.831186622e-07)
(2.301316171e-11 -4.838260626e-11 1.831866405e-07)
(-1.086201989e-11 7.980521814e-11 -1.831956186e-07)
(-5.689440081e-11 1.262660719e-10 3.998822525e-09)
(6.331941578e-12 1.076006316e-10 -3.965713264e-09)
(1.88573803e-11 1.509042953e-10 3.444795697e-09)
(7.937962597e-11 -1.85088521e-10 1.161955326e-07)
(8.196290537e-12 -1.511672183e-10 -1.163313514e-07)
(2.773670887e-12 -1.489086681e-10 1.163347195e-07)
(-4.561754479e-11 1.879237651e-10 1.831009706e-07)
(-2.609594837e-11 1.399045195e-10 -1.831707731e-07)
(-7.205253458e-12 1.326021163e-10 1.831691025e-07)
(4.017595683e-11 -3.064643565e-10 -4.075956758e-09)
(2.484051059e-11 -9.419113773e-11 3.991225736e-09)
(-3.625986323e-12 -1.719498031e-10 -3.435730604e-09)
(-7.963750267e-11 2.921267788e-10 -1.16285982e-07)
(2.378441456e-11 1.272064791e-10 1.164343329e-07)
(-2.658848369e-11 2.174751575e-10 -1.164000833e-07)
(3.594613386e-11 -2.219652061e-10 -1.83120426e-07)
(-3.700664714e-11 -1.088403671e-10 1.831497849e-07)
(2.241370216e-11 -1.888099121e-10 -1.83130727e-07)
(-8.792924738e-12 2.31340779e-10 4.170829101e-09)
(-9.957201634e-12 4.384813591e-11 -4.050046879e-09)
(-2.827947932e-12 9.237368565e-11 3.462489438e-09)
(2.627192761e-11 -2.249121451e-10 1.162650312e-07)
(1.31339323e-11 6.907265382e-12 -1.163755469e-07)
(-1.801952735e-11 -1.061476401e-11 1.164223323e-07)
(-2.247339933e-11 3.414798537e-10 1.830628698e-07)
(1.202191116e-11 -1.442090956e-11 -1.831468478e-07)
(2.907738434e-11 -6.606882003e-12 1.831310795e-07)
(-6.450621078e-11 -8.497830239e-11 -4.089935185e-09)
(3.619830064e-11 1.882993023e-11 4.097644309e-09)
(1.494794097e-11 2.153810184e-11 -3.510746001e-09)
(1.98679152e-11 5.402069135e-11 -1.162090164e-07)
(-4.580614393e-12 -5.18947288e-11 1.163062435e-07)
(2.165474724e-11 -5.555080267e-11 -1.163462927e-07)
(3.372081909e-11 5.60193318e-11 -1.831409792e-07)
(-2.369981174e-11 7.995437477e-11 1.831651042e-07)
(5.240913411e-12 1.050810388e-10 -1.831494615e-07)
(2.048214939e-11 -1.799339828e-11 4.11929642e-09)
(-1.700665897e-11 1.975945995e-11 -4.173067742e-09)
(-1.499704538e-11 7.480801686e-11 3.594251205e-09)
(-1.934974416e-12 6.660108696e-11 1.161621776e-07)
(-2.7062949e-11 4.581531469e-11 -1.162783382e-07)
(-2.86127913e-12 -8.535302947e-12 1.162259661e-07)
(-3.368421198e-11 -1.261817076e-10 1.831247842e-07)
(7.339099947e-12 -1.215897453e-10 -1.831796995e-07)
(-1.02261916e-12 -3.864115259e-11 1.832004532e-07)
(5.236114877e-11 7.337000846e-11 -4.080969461e-09)
(-1.604539456e-11 -2.765120402e-11 4.128351057e-09)
(2.558790355e-11 -8.147758312e-11 -3.519599012e-09)
(-4.287084868e-12 6.811413762e-12 -1.161783032e-07)
(2.401241111e-11 -1.47822888e-11 1.163157833e-07)
(-2.84411834e-11 4.724256891e-11 -1.16268911e-07)
(-3.910459615e-11 2.321682707e-11 -1.830562421e-07)
(3.653337639e-11 4.913660548e-11 1.831886509e-07)
(3.642517048e-11 1.01275094e-10 -1.831958849e-07)
(-1.056347804e-10 4.368656161e-11 4.106546365e-09)
(1.335978543e-10 7.132125195e-11 -4.089499954e-09)
(6.603559705e-11 2.60368638e-11 3.635963744e-09)
(4.91646942e-11 -5.599507293e-11 1.162532331e-07)
(-3.86750689e-11 -6.220572029e-11 -1.163413547e-07)
(-1.437907885e-11 -3.763742684e-11 1.164117264e-07)
(-1.058676252e-11 1.586550147e-10 1.830676151e-07)
(7.598085736e-11 1.048576167e-10 -1.831648949e-07)
(1.331558652e-11 3.993495233e-11 1.831173552e-07)
(-7.052315427e-11 2.586925145e-11 -4.161813285e-09)
(-1.01726117e-11 -3.061027574e-11 3.962246484e-09)
(3.530507534e-11 -2.697788557e-12 -3.301250443e-09)
(-1.518652784e-11 6.225200462e-11 -1.162784581e-07)
(-3.109139199e-11 9.575116907e-12 1.163478377e-07)
(-1.924099376e-11 3.82115014e-11 -1.164160672e-07)
(3.870365769e-12 -2.079270956e-10 -1.830969419e-07)
(-5.03848265e-11 -1.413648344e-10 1.831518311e-07)
(-5.161151015e-12 -1.372638434e-10 -1.832631432e-07)
(-1.689844009e-11 -2.10570446e-10 3.96304389e-09)
(-7.232041009e-11 2.116808862e-11 -3.864465655e-09)
(1.470566546e-11 -6.819509706e-11 3.86889198e-09)
(4.974397301e-11 -3.009268773e-12 1.162640959e-07)
(-1.835929898e-11 3.743859296e-11 -1.163348032e-07)
(3.743211919e-11 9.617335612e-11 1.163822266e-07)
(-6.198874908e-11 -1.221546953e-11 1.831247877e-07)
(3.870015004e-12 -4.884949729e-11 -1.832033029e-07)
(-1.334584656e-10 5.904311351e-11 1.83212402e-07)
(5.434414217e-12 -6.435528058e-11 -3.893151551e-09)
(-6.29485445e-11 -3.582615014e-11 4.018656988e-09)
(7.373927354e-11 8.514247748e-11 -3.984738724e-09)
(9.610501145e-11 -2.160741906e-10 -1.163291907e-07)
(-2.547680486e-11 -8.199967834e-11 1.163439397e-07)
(8.047673041e-11 -1.217716047e-11 -1.164736873e-07)
(-1.398494685e-10 3.23425366e-10 -1.831322855e-07)
(1.792534552e-10 1.099882435e-10 1.832554361e-07)
(4.055564459e-11 -2.418100249e-10 -1.832459328e-07)
)


// ************************************************************************* //
