/*--------------------------------*- C++ -*----------------------------------*\
  =========                 |
  \\      /  F ield         | OpenFOAM: The Open Source CFD Toolbox
   \\    /   O peration     | Website:  https://openfoam.org
    \\  /    A nd           | Version:  7
     \\/     M anipulation  |
\*---------------------------------------------------------------------------*/
FoamFile
{
    version     2.0;
    format      ascii;
    class       labelFieldField;
    location    "2/lagrangian/steelCloud";
    object      collisionRecordsPairOrigProcOfOther;
}
// * * * * * * * * * * * * * * * * * * * * * * * * * * * * * * * * * * * * * //


396
(
2{0}
3{0}
4(0 0 0 3)
3{0}
4{0}
4{0}
4(0 0 0 6)
5(0 0 0 6 0)
3(0 6 0)
1(0)
1(0)
4(0 0 0 3)
5{0}
6{0}
6(0 0 0 0 0 3)
4(0 0 0 6)
5(0 0 0 0 6)
4(0 0 3 6)
3{0}
4{0}
5(0 0 0 0 3)
5{0}
5{0}
5(0 0 0 0 3)
5(0 0 0 0 6)
6(0 0 0 0 0 6)
4(0 0 3 6)
3(0 1 0)
3{0}
4(0 0 0 3)
5(0 0 0 0 1)
6(0 0 0 0 0 1)
6(0 0 0 0 1 3)
4(0 0 1 6)
5(0 0 0 1 6)
4(0 0 3 6)
3(1 1 0)
4{1}
4(1 1 1 4)
5(1 1 1 1 0)
5(1 1 1 1 0)
5(1 1 1 0 4)
5(1 1 1 0 7)
6(1 1 1 1 0 7)
5(1 1 1 4 7)
1(1)
3{1}
4(1 1 1 4)
5{1}
6{1}
6(1 1 1 1 1 4)
4(1 1 1 7)
5(1 1 1 1 7)
6(1 1 1 1 4 7)
2{1}
4{1}
4(1 1 1 4)
5{1}
5{1}
5(1 1 1 1 4)
5(1 1 1 1 7)
6(1 1 1 1 1 7)
6(1 1 1 1 4 7)
2(1 2)
3{1}
4(1 1 1 4)
5(1 1 1 1 2)
6(1 1 1 1 1 2)
6(1 1 1 1 2 4)
4(1 1 2 7)
5(1 1 1 2 7)
6(1 1 1 2 4 7)
3(2 2 1)
4{2}
4(2 2 2 5)
5(2 2 2 2 1)
5(2 2 2 2 1)
5(2 2 2 1 5)
4(2 2 1 8)
6(2 2 2 2 1 8)
6(2 2 2 1 5 8)
1(2)
3{2}
4(2 2 2 5)
5{2}
6{2}
6(2 2 2 2 2 5)
2(2 8)
5(2 2 2 2 8)
6(2 2 2 2 5 8)
2{2}
3{2}
3(2 2 5)
4{2}
5{2}
5(2 2 2 2 5)
3(2 2 8)
5(2 2 2 2 8)
5(2 2 2 5 8)
4(3 3 0 3)
2{3}
2{3}
4{3}
5{3}
4{3}
3(3 3 9)
3(3 3 9)
3(3 3 9)
4(3 3 3 0)
3{3}
4{3}
6(3 3 3 3 3 0)
6{3}
5{3}
6(3 3 3 3 0 9)
6(3 3 3 3 3 9)
5(3 3 3 3 9)
4(3 3 3 0)
3{3}
3{3}
6(3 3 3 3 3 0)
6{3}
5{3}
6(3 3 3 3 0 9)
6(3 3 3 3 3 9)
5(3 3 3 3 9)
4(3 3 3 0)
4{3}
3{3}
6(3 3 3 3 0 4)
6(3 3 3 3 4 3)
5(3 3 3 4 3)
6(3 3 3 0 4 9)
6(3 3 3 3 4 9)
5(3 3 3 4 9)
4(4 4 4 1)
3{4}
2{4}
6(4 4 4 4 1 3)
6(4 4 4 4 4 3)
5(4 4 4 4 3)
5(4 4 1 3 10)
5(4 4 4 3 10)
5(4 4 4 3 10)
5(4 4 4 4 1)
4{4}
4{4}
6(4 4 4 4 4 1)
6{4}
5{4}
6(4 4 4 4 1 10)
6(4 4 4 4 4 10)
5(4 4 4 4 10)
5(4 4 4 4 1)
4{4}
4{4}
6(4 4 4 4 4 1)
6{4}
5{4}
6(4 4 4 4 1 10)
6(4 4 4 4 4 10)
5(4 4 4 4 10)
4(4 4 4 1)
4{4}
3{4}
6(4 4 4 4 1 5)
6(4 4 4 4 4 5)
5(4 4 4 4 5)
6(4 4 4 1 5 10)
6(4 4 4 4 5 10)
5(4 4 4 5 10)
4(5 5 5 2)
4{5}
3{5}
6(5 5 5 5 2 4)
6(5 5 5 5 5 4)
5(5 5 5 5 4)
6(5 5 5 2 4 11)
6(5 5 5 5 4 11)
5(5 5 5 4 11)
4(5 5 5 2)
4{5}
3{5}
6(5 5 5 5 5 2)
6{5}
5{5}
6(5 5 5 5 2 11)
6(5 5 5 5 5 11)
5(5 5 5 5 11)
3(5 5 2)
2{5}
1(5)
5(5 5 5 5 2)
5{5}
4{5}
5(5 5 5 2 11)
5(5 5 5 5 11)
4(5 5 5 11)
3(6 6 0)
4(6 6 0 6)
4(6 6 0 6)
4{6}
5{6}
4{6}
3{6}
3{6}
2{6}
5(6 6 6 6 0)
6(6 6 6 6 6 0)
6(6 6 6 6 0 9)
4{6}
5{6}
6(6 6 6 6 6 9)
4{6}
5{6}
5(6 6 6 6 9)
5(6 6 6 0 6)
5(6 6 6 0 6)
5(6 6 6 0 9)
5{6}
6{6}
6(6 6 6 6 6 9)
4{6}
4{6}
3{6}
5(6 6 6 0 7)
6(6 6 6 6 0 7)
6(6 6 6 0 7 9)
4(6 6 6 7)
5(6 6 6 6 7)
6(6 6 6 6 7 9)
3(6 6 7)
3(6 6 7)
4(6 6 7 9)
5(7 7 7 1 6)
6(7 7 7 7 1 6)
6(7 7 7 1 6 10)
5(7 7 7 7 6)
6(7 7 7 7 7 6)
6(7 7 7 7 6 10)
4(7 7 7 6)
5(7 7 7 7 6)
4(7 7 7 6)
5(7 7 7 7 1)
6(7 7 7 7 7 1)
6(7 7 7 7 1 10)
4{7}
5{7}
6(7 7 7 7 7 10)
3{7}
4{7}
5(7 7 7 7 10)
5(7 7 7 7 1)
6(7 7 7 7 7 1)
6(7 7 7 7 1 10)
5{7}
6{7}
6(7 7 7 7 7 10)
4{7}
5{7}
4{7}
5(7 7 7 1 8)
6(7 7 7 7 1 8)
6(7 7 7 1 8 10)
5(7 7 7 7 8)
6(7 7 7 7 7 8)
6(7 7 7 7 8 10)
3(7 7 8)
4(7 7 7 8)
5(7 7 7 8 10)
5(8 8 8 2 7)
6(8 8 8 8 2 7)
6(8 8 8 2 7 11)
5(8 8 8 8 7)
6(8 8 8 8 8 7)
5(8 8 8 8 7)
4(8 8 8 7)
5(8 8 8 8 7)
4(8 8 8 7)
5(8 8 8 8 2)
6(8 8 8 8 8 2)
6(8 8 8 8 2 11)
4{8}
5{8}
6(8 8 8 8 8 11)
4{8}
5{8}
5(8 8 8 8 11)
4(8 8 8 2)
5(8 8 8 8 2)
5(8 8 8 2 11)
4{8}
5{8}
5(8 8 8 8 11)
3{8}
4{8}
3{8}
4(9 9 3 9)
5(9 9 9 3 9)
4(9 9 9 3)
3{9}
3{9}
3{9}
2{9}
3{9}
3{9}
6(9 9 9 9 3 6)
6(9 9 9 9 9 3)
5(9 9 9 9 3)
6(9 9 9 9 9 6)
6{9}
5{9}
4(9 9 9 6)
3{9}
3{9}
6(9 9 9 9 3 6)
6(9 9 9 9 9 3)
5(9 9 9 9 3)
6(9 9 9 9 9 6)
6{9}
5{9}
4{9}
5{9}
4{9}
6(9 9 9 3 6 10)
6(9 9 9 9 3 10)
5(9 9 9 3 10)
6(9 9 9 9 6 10)
6(9 9 9 9 9 10)
5(9 9 9 9 10)
4(9 9 10 6)
3(9 9 10)
3(9 9 10)
5(10 10 4 7 9)
6(10 10 10 10 4 9)
5(10 10 10 4 9)
6(10 10 10 10 7 9)
6(10 10 10 10 10 9)
5(10 10 10 10 9)
4(10 10 10 9)
5(10 10 10 10 9)
4(10 10 10 9)
5(10 10 10 4 7)
6(10 10 10 10 10 4)
5(10 10 10 10 4)
6(10 10 10 10 10 7)
5{10}
4{10}
5(10 10 10 10 7)
5{10}
4{10}
5(10 10 10 4 7)
6(10 10 10 10 10 4)
4(10 10 10 4)
6(10 10 10 10 10 7)
6{10}
5{10}
4{10}
5{10}
4{10}
5(10 10 4 7 11)
5(10 10 10 4 11)
3(10 4 11)
6(10 10 10 10 7 11)
5(10 10 10 10 11)
4(10 10 10 11)
5(10 10 10 7 11)
5(10 10 10 10 11)
4(10 10 10 11)
5(11 11 5 8 10)
6(11 11 11 11 5 10)
4(11 11 5 10)
4(11 11 11 10)
5(11 11 11 11 10)
5(11 11 11 11 10)
4(11 11 11 10)
5(11 11 11 11 10)
4(11 11 11 10)
5(11 11 11 5 8)
5(11 11 11 11 5)
3(11 11 5)
6(11 11 11 11 11 8)
5{11}
4{11}
5(11 11 11 11 8)
4{11}
3{11}
5(11 11 11 5 8)
5(11 11 11 11 5)
4(11 11 11 5)
5(11 11 11 11 8)
5{11}
4{11}
3{11}
4{11}
3{11}
)


// ************************************************************************* //
