/*--------------------------------*- C++ -*----------------------------------*\
  =========                 |
  \\      /  F ield         | OpenFOAM: The Open Source CFD Toolbox
   \\    /   O peration     | Website:  https://openfoam.org
    \\  /    A nd           | Version:  7
     \\/     M anipulation  |
\*---------------------------------------------------------------------------*/
FoamFile
{
    version     2.0;
    format      ascii;
    class       labelFieldField;
    location    "2/lagrangian/steelCloud";
    object      collisionRecordsPairOrigIdOfOther;
}
// * * * * * * * * * * * * * * * * * * * * * * * * * * * * * * * * * * * * * //


396
(
2(1 3)
3(0 2 4)
4(1 5 11 0)
3(0 6 12)
4(1 7 13 5)
4(2 8 14 4)
4(3 7 15 0)
5(4 6 16 1 8)
3(5 2 7)
1(12)
1(13)
4(2 20 14 9)
5(3 9 13 15 21)
6(4 10 12 14 16 22)
6(5 11 13 17 23 12)
4(6 12 24 9)
5(7 13 17 25 10)
4(14 16 15 11)
3(19 21 27)
4(18 20 22 28)
5(11 19 23 29 18)
5(12 18 22 24 30)
5(13 19 21 25 31)
5(14 20 26 32 21)
5(15 21 25 33 18)
6(16 22 24 26 34 19)
4(23 25 24 20)
3(30 0 18)
3(19 29 31)
4(20 28 32 27)
5(21 27 31 33 3)
6(22 28 30 32 34 4)
6(23 29 31 35 5 30)
4(24 30 6 27)
5(25 31 35 7 28)
4(32 34 33 29)
3(1 3 27)
4(0 2 4 10)
4(1 5 11 0)
5(0 4 6 12 30)
5(1 3 7 13 31)
5(2 8 14 32 3)
5(3 7 15 33 0)
6(4 6 8 16 34 1)
5(5 7 17 6 2)
1(12)
3(1 11 13)
4(2 10 14 9)
5(3 9 13 15 21)
6(4 10 12 14 16 22)
6(5 11 13 17 23 12)
4(6 12 24 9)
5(7 13 17 25 10)
6(8 14 16 26 15 11)
2(19 21)
4(18 20 22 28)
4(19 23 29 18)
5(12 18 22 24 30)
5(13 19 21 25 31)
5(14 20 26 32 21)
5(15 21 25 33 18)
6(16 22 24 26 34 19)
6(17 23 25 35 24 20)
2(30 0)
3(19 29 31)
4(20 28 32 27)
5(21 27 31 33 3)
6(22 28 30 32 34 4)
6(23 29 31 35 5 30)
4(24 30 6 27)
5(25 31 35 7 28)
6(26 32 34 8 33 29)
3(1 3 27)
4(0 2 4 10)
4(1 11 5 0)
5(0 4 6 12 30)
5(1 3 7 13 31)
5(2 8 14 32 3)
4(3 7 33 0)
6(4 6 8 16 34 1)
6(5 7 17 35 6 2)
1(12)
3(1 11 13)
4(2 10 14 9)
5(3 9 13 15 21)
6(4 10 12 14 16 22)
6(5 11 13 17 23 12)
2(12 9)
5(7 13 17 25 10)
6(8 14 16 26 15 11)
2(19 21)
3(18 20 22)
3(19 23 18)
4(12 18 22 24)
5(13 19 21 23 25)
5(14 20 22 26 21)
3(21 25 18)
5(16 22 24 26 19)
5(17 23 25 24 20)
4(9 3 2 1)
2(4 0)
2(11 5)
4(0 6 12 4)
5(1 5 7 13 3)
4(2 4 8 14)
3(3 15 0)
3(4 16 1)
3(5 17 2)
4(0 10 12 11)
3(9 11 13)
4(2 10 20 14)
6(3 9 21 13 15 14)
6(4 10 12 14 16 22)
5(5 11 13 23 17)
6(6 12 24 16 17 9)
6(7 13 15 17 25 10)
5(8 14 16 26 11)
4(19 21 27 20)
3(18 22 28)
3(11 23 29)
6(12 18 22 24 30 23)
6(13 19 21 23 25 31)
5(14 20 22 26 32)
6(15 21 25 33 26 18)
6(16 22 24 26 34 19)
5(17 23 25 35 20)
4(18 28 30 29)
4(19 27 29 31)
3(20 28 32)
6(21 27 31 33 32 3)
6(22 28 30 34 4 32)
5(23 29 35 5 31)
6(24 30 34 35 6 27)
6(25 31 33 35 7 28)
5(26 32 34 8 29)
4(9 1 3 2)
3(0 4 10)
2(11 5)
6(0 4 6 12 5 30)
6(1 3 5 7 13 31)
5(2 4 8 14 32)
5(3 15 8 33 0)
5(4 8 16 34 1)
5(5 7 17 35 2)
5(0 18 10 12 11)
4(1 9 11 13)
4(2 10 20 14)
6(3 9 21 13 15 14)
6(4 10 12 14 16 22)
5(5 11 13 23 17)
6(6 12 24 16 17 9)
6(7 13 15 17 25 10)
5(8 14 16 26 11)
5(9 19 21 27 20)
4(18 20 22 28)
4(11 19 23 29)
6(12 18 22 24 30 23)
6(13 19 21 23 25 31)
5(14 20 22 26 32)
6(15 21 25 33 26 18)
6(16 22 24 26 34 19)
5(17 23 25 35 20)
4(18 28 30 29)
4(19 27 29 31)
3(20 28 32)
6(21 27 31 33 32 3)
6(22 28 30 32 34 4)
5(23 29 31 35 5)
6(24 30 34 35 6 27)
6(25 31 33 35 7 28)
5(26 32 34 8 29)
4(9 1 3 2)
4(0 2 4 10)
3(1 11 5)
6(0 4 6 12 5 30)
6(1 3 5 7 13 31)
5(2 4 8 14 32)
6(3 15 7 8 33 0)
6(4 6 8 16 34 1)
5(5 7 17 35 2)
4(0 10 12 11)
4(1 9 11 13)
3(2 10 14)
6(3 9 21 13 15 14)
6(4 10 12 14 16 22)
5(5 11 13 23 17)
6(6 12 24 16 17 9)
6(7 13 15 17 25 10)
5(8 14 16 26 11)
3(19 21 20)
2(18 22)
1(23)
5(12 18 22 24 23)
5(13 19 21 23 25)
4(14 20 22 26)
5(15 21 25 26 18)
5(16 22 24 26 19)
4(17 23 25 20)
3(9 3 6)
4(4 10 7 2)
4(11 5 8 1)
4(0 6 12 4)
5(1 7 13 3 5)
4(2 8 14 4)
3(3 15 7)
3(4 16 6)
2(5 17)
5(0 18 10 12 15)
6(1 9 19 11 13 16)
6(2 10 20 14 17 9)
4(3 9 15 21)
5(4 10 14 16 22)
6(5 11 13 17 23 12)
4(6 12 24 16)
5(7 13 15 25 17)
5(8 14 16 26 15)
5(9 21 27 24 19)
5(10 22 28 25 18)
5(11 23 29 26 18)
5(12 18 22 24 30)
6(13 19 21 23 25 31)
6(14 20 22 26 32 21)
4(15 21 33 25)
4(16 22 34 24)
3(17 23 35)
5(18 28 30 33 0)
6(19 27 29 31 34 1)
6(20 28 32 35 2 27)
4(21 27 33 3)
5(22 28 32 34 4)
6(23 29 31 35 5 30)
3(24 30 6)
3(25 31 7)
4(26 32 8 33)
5(9 1 3 6 27)
6(0 2 4 10 7 28)
6(1 11 5 8 29 0)
5(0 4 6 12 30)
6(1 3 5 7 13 31)
6(2 4 8 14 32 3)
4(3 15 7 33)
5(4 6 8 16 34)
4(5 7 17 35)
5(0 18 10 12 15)
6(1 9 19 11 13 16)
6(2 10 20 14 17 9)
4(3 9 15 21)
5(4 10 14 16 22)
6(5 11 13 17 23 12)
3(6 12 24)
4(7 13 25 17)
5(8 14 16 26 15)
5(9 19 21 27 24)
6(10 18 20 22 28 25)
6(11 19 23 29 26 18)
5(12 18 22 24 30)
6(13 19 21 23 25 31)
6(14 20 22 26 32 21)
4(15 21 25 33)
5(16 22 24 26 34)
4(17 23 25 35)
5(18 28 30 33 0)
6(19 27 29 31 34 1)
6(20 28 32 35 2 27)
5(21 27 31 33 3)
6(22 28 30 32 34 4)
6(23 29 31 35 5 30)
3(24 30 6)
4(25 31 35 7)
5(26 32 34 8 33)
5(9 1 3 6 27)
6(0 2 4 10 7 28)
6(1 11 5 8 29 0)
5(0 4 6 12 30)
6(1 3 5 7 13 31)
5(2 4 8 14 32)
4(3 15 7 33)
5(4 6 8 16 34)
4(5 7 17 35)
5(0 18 10 12 15)
6(1 9 19 11 13 16)
6(2 10 20 14 17 9)
4(3 9 15 21)
5(4 10 14 16 22)
6(5 11 13 17 23 12)
4(6 12 24 16)
5(7 13 25 17 15)
5(8 14 16 26 15)
4(9 19 21 24)
5(10 18 20 22 25)
5(11 19 23 26 18)
4(12 18 22 24)
5(13 19 21 23 25)
5(14 20 22 26 21)
3(15 21 25)
4(16 22 24 26)
3(17 23 25)
4(9 3 6 1)
5(2 4 10 7 0)
4(1 11 5 8)
3(0 6 12)
3(1 7 13)
3(2 8 14)
2(3 15)
3(4 16 8)
3(5 17 7)
6(0 18 10 12 15 11)
6(1 9 19 11 13 16)
5(2 10 20 14 17)
6(3 9 21 13 15 14)
6(4 10 12 14 16 22)
5(5 11 13 23 17)
4(6 12 24 17)
3(7 13 25)
3(8 14 26)
6(9 19 21 27 24 20)
6(10 18 20 22 28 25)
5(11 19 23 29 26)
6(12 18 22 24 30 23)
6(13 19 21 23 25 31)
5(14 20 22 26 32)
4(15 21 25 33)
5(16 22 24 26 34)
4(17 23 25 35)
6(18 28 30 33 29 0)
6(19 27 29 31 34 1)
5(20 28 32 35 2)
6(21 27 31 33 32 3)
6(22 28 30 32 34 4)
5(23 29 31 35 5)
4(24 30 6 35)
3(25 31 7)
3(26 32 8)
5(1 3 6 2 27)
6(0 2 4 10 7 28)
5(1 11 5 8 29)
6(0 4 6 12 5 30)
6(1 3 5 7 13 31)
5(2 4 8 14 32)
4(3 15 7 33)
5(4 6 8 16 34)
4(5 7 17 35)
5(18 10 12 15 11)
6(1 9 19 11 13 16)
5(2 10 20 14 17)
6(3 9 21 13 15 14)
5(4 10 12 16 22)
4(5 11 23 17)
5(6 12 24 16 17)
5(7 13 15 25 17)
4(8 14 16 26)
5(9 19 21 24 20)
6(10 18 20 22 28 25)
4(11 19 23 26)
6(12 18 22 24 30 23)
6(13 19 21 23 25 31)
5(14 20 22 26 32)
4(15 21 25 33)
5(16 22 24 26 34)
4(17 23 25 35)
5(28 30 33 29 0)
5(19 27 31 34 1)
3(32 35 2)
6(21 27 31 33 32 3)
5(22 28 30 34 4)
4(23 29 35 5)
5(24 30 34 35 6)
5(25 31 33 35 7)
4(26 32 34 8)
5(1 3 6 2 27)
6(0 2 4 10 7 28)
4(1 5 8 29)
4(0 6 12 30)
5(1 5 7 13 31)
5(2 4 8 14 32)
4(3 15 7 33)
5(4 6 8 16 34)
4(5 7 17 35)
5(18 10 12 15 11)
5(1 9 19 13 16)
3(20 14 17)
6(3 9 21 13 15 14)
5(4 10 12 16 22)
4(5 11 23 17)
5(6 12 24 16 17)
4(7 13 15 25)
3(8 14 26)
5(9 19 21 24 20)
5(10 18 20 22 25)
4(11 19 23 26)
5(12 18 22 24 23)
5(13 19 21 23 25)
4(14 20 22 26)
3(15 21 25)
4(16 22 24 26)
3(17 23 25)
)


// ************************************************************************* //
