/*--------------------------------*- C++ -*----------------------------------*\
  =========                 |
  \\      /  F ield         | OpenFOAM: The Open Source CFD Toolbox
   \\    /   O peration     | Website:  https://openfoam.org
    \\  /    A nd           | Version:  7
     \\/     M anipulation  |
\*---------------------------------------------------------------------------*/
FoamFile
{
    version     2.0;
    format      ascii;
    class       vectorFieldField;
    location    "2/lagrangian/steelCloud";
    object      collisionRecordsPairData;
}
// * * * * * * * * * * * * * * * * * * * * * * * * * * * * * * * * * * * * * //


396
(
2((-1.709252483e-10 6.900235669e-14 -4.921242304e-11) (1.567587624e-10 -1.199862504e-11 -1.121071708e-13))
3((1.709252483e-10 -6.900235669e-14 4.921242304e-11) (1.899985619e-11 6.553111731e-15 5.901795123e-11) (8.741305794e-11 -6.363843972e-12 -2.697382554e-14))
4((-1.899985619e-11 -6.553111731e-15 -5.901795123e-11) (8.290486294e-11 3.022779456e-12 -5.429346853e-14) (-2.549894883e-18 4.519037833e-12 -2.196490304e-10) (1.259932029e-11 -4.000237683e-15 -4.626071319e-11))
3((-1.567587624e-10 1.199862504e-11 1.121071708e-13) (-2.689674707e-11 1.140427835e-11 -1.054368127e-15) (-2.228958961e-16 -1.389441136e-10 5.495968676e-10))
4((-8.741305794e-11 6.363843972e-12 2.697382554e-14) (-5.652098737e-11 8.187613807e-12 -2.835960604e-16) (9.932926135e-17 4.206010001e-11 -3.924036414e-10) (-1.714158862e-11 3.949066182e-17 1.238529775e-10))
4((-8.290486294e-11 -3.022779456e-12 5.429346853e-14) (-2.098954846e-10 -2.118079587e-12 -2.292169979e-14) (-1.8306591e-16 -1.069151971e-10 -6.78523079e-10) (1.714158862e-11 -3.949066182e-17 -1.238529775e-10))
4((2.689674707e-11 -1.140427835e-11 1.054368127e-15) (0 0 0) (-6.692325992e-17 -1.339804101e-11 2.855876533e-10) (1.042461695e-10 -2.926917622e-12 -3.941839388e-15))
5((5.652098737e-11 -8.187613807e-12 2.835960604e-16) (0 0 0) (0 0 0) (2.954554239e-11 1.323920023e-11 -3.689292668e-17) (3.665466089e-11 3.783688807e-15 2.069887289e-10))
3((2.098954846e-10 2.118079587e-12 2.292169979e-14) (2.163538241e-10 1.802886693e-11 -2.28397269e-14) (-3.665466089e-11 -3.783688807e-15 -2.069887289e-10))
1((2.499113972e-10 3.42431677e-11 -9.676841088e-14))
1((2.691366504e-10 -1.070661796e-11 -8.299747404e-14))
4((2.549894883e-18 -4.519037833e-12 2.196490304e-10) (-2.769418995e-16 -1.725659224e-10 -4.671612877e-10) (1.458618335e-10 -4.611968598e-11 -9.558468461e-14) (-1.365508738e-10 4.334754535e-14 2.556393261e-10))
5((2.228958961e-16 1.389441136e-10 -5.495968676e-10) (-2.499113972e-10 -3.42431677e-11 9.676841088e-14) (-4.062460016e-10 -1.043787104e-15 3.581065083e-10) (-7.798489263e-11 -3.684573707e-12 -3.053350943e-15) (5.6503234e-17 1.957715386e-11 3.992348629e-10))
6((-9.932926135e-17 -4.206010001e-11 3.924036414e-10) (-2.691366504e-10 1.070661796e-11 8.299747404e-14) (4.062460016e-10 1.043787104e-15 -3.581065083e-10) (2.94724033e-11 -1.015571734e-16 -2.087774571e-10) (-1.642893415e-10 2.584224113e-11 -9.236027466e-16) (1.306272568e-18 -3.297467992e-10 9.599627988e-10))
6((1.8306591e-16 1.069151971e-10 6.78523079e-10) (-1.458618335e-10 4.611968598e-11 9.558468461e-14) (-2.94724033e-11 1.015571734e-16 2.087774571e-10) (-3.230045154e-10 3.135291943e-11 -3.518022189e-14) (-1.122969289e-16 5.676464444e-11 -1.618354142e-10) (1.631871005e-10 6.437518184e-16 2.547052721e-10))
4((6.692325992e-17 1.339804101e-11 -2.855876533e-10) (7.798489263e-11 3.684573707e-12 3.053350943e-15) (1.692899206e-16 1.743631262e-10 -2.654119544e-10) (1.461696617e-10 3.970324334e-11 -5.489515647e-15))
5((0 0 0) (1.642893415e-10 -2.584224113e-11 9.236027466e-16) (3.635091117e-11 3.712588764e-15 -8.53064026e-11) (2.262261409e-16 -7.26818226e-12 -1.072648916e-09) (5.671726473e-11 -4.738940562e-11 -1.950463797e-16))
4((3.230045154e-10 -3.135291943e-11 3.518022189e-14) (-3.635091117e-11 -3.712588764e-15 8.53064026e-11) (-1.273788859e-10 1.324507663e-14 5.435730793e-11) (3.823991861e-10 -4.615646214e-11 -4.031210249e-14))
3((-9.278116538e-11 1.658766423e-14 1.114951685e-10) (1.995524071e-10 -1.895590351e-11 -7.232615548e-14) (0 0 0))
4((9.278116538e-11 -1.658766423e-14 -1.114951685e-10) (2.023181714e-11 9.545430192e-15 3.194411228e-12) (3.440477666e-11 4.137174257e-11 -6.209760894e-15) (7.82450691e-16 -2.804343802e-10 4.465045364e-10))
5((2.769418995e-16 1.725659224e-10 4.671612877e-10) (-2.023181714e-11 -9.545430192e-15 -3.194411228e-12) (7.797056845e-11 4.042194583e-12 -5.099936509e-14) (-6.325635633e-16 2.559502623e-10 -1.266793288e-10) (1.408378152e-10 -5.938526571e-14 3.303024076e-11))
5((-5.6503234e-17 -1.957715386e-11 -3.992348629e-10) (-1.995524071e-10 1.895590351e-11 7.232615548e-14) (0 0 0) (-8.227946581e-11 4.144095017e-11 -3.159633979e-15) (-7.902373512e-17 -1.42923826e-10 1.024445149e-10))
5((-1.306272568e-18 3.297467992e-10 -9.599627988e-10) (-3.440477666e-11 -4.137174257e-11 6.209760894e-15) (0 0 0) (1.071393648e-10 -5.428164143e-11 4.642309626e-16) (4.299492804e-17 2.941019614e-10 -3.145291355e-10))
5((1.122969289e-16 -5.676464444e-11 1.618354142e-10) (-7.797056845e-11 -4.042194583e-12 5.099936509e-14) (-2.736544609e-10 -1.553947136e-11 -2.519904069e-14) (-8.020693857e-16 -2.020349985e-10 -5.678073386e-10) (0 0 0))
5((-1.692899206e-16 -1.743631262e-10 2.654119544e-10) (8.227946581e-11 -4.144095017e-11 3.159633979e-15) (0 0 0) (-7.369968262e-18 3.407014412e-11 3.917831804e-11) (5.896444383e-11 -1.108901784e-11 -2.180667607e-15))
6((-2.262261409e-16 7.26818226e-12 1.072648916e-09) (-1.071393648e-10 5.428164143e-11 -4.642309626e-16) (0 0 0) (0 0 0) (-3.683256375e-15 6.471953539e-10 5.813203567e-10) (-1.348092735e-10 2.678381274e-11 2.498664349e-17))
4((2.736544609e-10 1.553947136e-11 2.519904069e-14) (0 0 0) (2.403862463e-10 -2.10571508e-14 5.529302398e-11) (2.629008617e-10 -3.204632352e-11 -2.314106452e-14))
3((1.996219683e-10 8.825484181e-11 -7.213706818e-14) (0 0 0) (0 0 0))
3((-7.82450691e-16 2.804343802e-10 -4.465045364e-10) (-2.150273802e-10 -1.014985322e-13 -6.09764882e-11) (3.951020584e-10 -4.275483268e-11 -7.129249925e-14))
4((6.325635633e-16 -2.559502623e-10 1.266793288e-10) (2.150273802e-10 1.014985322e-13 6.09764882e-11) (3.128059897e-10 -6.271072118e-11 -2.044679858e-13) (0 0 0))
5((7.902373512e-17 1.42923826e-10 -1.024445149e-10) (-1.996219683e-10 -8.825484181e-11 7.213706818e-14) (4.154023738e-11 4.480483725e-18 -3.189237952e-10) (-7.241293377e-11 -8.05862082e-11 -2.771614597e-15) (-1.351211293e-16 3.487821031e-10 2.019250354e-10))
6((-4.299492804e-17 -2.941019614e-10 3.145291355e-10) (-3.951020584e-10 4.275483268e-11 7.129249925e-14) (-4.154023738e-11 -4.480483725e-18 3.189237952e-10) (-1.223512446e-11 7.708635964e-17 2.895512872e-10) (-2.242399822e-10 5.363728298e-11 -1.344521024e-15) (-7.008446529e-17 -2.843225086e-10 6.716065884e-10))
6((8.020693857e-16 2.020349985e-10 5.678073386e-10) (-3.128059897e-10 6.271072118e-11 2.044679858e-13) (1.223512446e-11 -7.708635964e-17 -2.895512872e-10) (-3.641305411e-10 9.670762863e-11 -2.511831615e-14) (-9.544049269e-16 2.130940555e-10 4.390483977e-10) (1.806551431e-10 7.225044453e-16 -4.913321589e-11))
4((7.369968262e-18 -3.407014412e-11 -3.917831804e-11) (7.241293377e-11 8.05862082e-11 2.771614597e-15) (5.081753892e-16 3.345776119e-10 2.760023941e-11) (3.65872636e-11 1.172920732e-10 -1.225461688e-15))
5((3.683256375e-15 -6.471953539e-10 -5.813203567e-10) (2.242399822e-10 -5.363728298e-11 1.344521024e-15) (3.753869599e-10 2.33850407e-14 4.131229766e-10) (-4.953349445e-15 -6.93366584e-10 -5.360000891e-10) (1.937081406e-10 1.068588547e-11 -3.505477376e-17))
4((3.641305411e-10 -9.670762863e-11 2.511831615e-14) (-3.753869599e-10 -2.33850407e-14 -4.131229766e-10) (-2.497212926e-10 1.582748116e-14 -3.644071167e-11) (3.753566895e-10 -7.648966402e-11 -2.460763485e-14))
3((-2.683076526e-10 8.58807681e-14 -4.23085671e-10) (2.528134277e-10 -1.044107876e-10 -9.105485529e-14) (0 0 0))
4((2.683076526e-10 -8.58807681e-14 4.23085671e-10) (-5.996721033e-11 -3.24741754e-14 4.188389134e-10) (-1.236654937e-10 3.938167991e-11 4.645925412e-15) (3.299896072e-16 -1.644158002e-10 -3.084739731e-10))
4((5.996721033e-11 3.24741754e-14 -4.188389134e-10) (4.04578295e-12 4.482697573e-11 -2.505910197e-15) (1.492571576e-15 -5.45436654e-10 -1.870762486e-10) (-3.467374341e-10 1.463469794e-13 -4.381619782e-11))
5((-2.528134277e-10 1.044107876e-10 9.105485529e-14) (1.040264036e-10 2.269667178e-16 1.883472356e-10) (-1.854928549e-10 1.206730834e-10 -6.774503516e-15) (-1.93151791e-16 -2.281674426e-10 2.84182415e-10) (1.351211296e-16 -3.487821031e-10 -2.019250354e-10))
5((1.236654937e-10 -3.938167991e-11 -4.645925412e-15) (-1.040264036e-10 -2.269667178e-16 -1.883472356e-10) (2.08915441e-10 1.626432061e-12 8.956837219e-16) (3.177343566e-16 4.530415484e-10 -2.131506642e-10) (7.00844644e-17 2.843225086e-10 -6.716065884e-10))
5((-4.04578295e-12 -4.482697573e-11 2.505910197e-15) (1.256733146e-10 1.804228231e-11 1.522868781e-15) (-1.873438309e-15 -4.701097417e-10 -9.739472971e-11) (9.544049258e-16 -2.130940555e-10 -4.390483977e-10) (-2.258995442e-10 -8.0185552e-16 2.549672419e-10))
5((1.854928549e-10 -1.206730834e-10 6.774503516e-15) (0 0 0) (4.259913482e-16 -5.003055978e-10 -3.607074686e-11) (-5.081753907e-16 -3.345776119e-10 -2.760023941e-11) (2.124717281e-10 -2.443763926e-12 -7.743425995e-15))
6((-2.08915441e-10 -1.626432061e-12 -8.956837219e-16) (0 0 0) (-1.053315813e-09 -6.701947725e-15 1.160083967e-10) (-1.417674108e-14 1.554603221e-09 4.982920152e-10) (4.953349445e-15 6.93366584e-10 5.360000891e-10) (-1.767551917e-10 1.956772769e-12 8.298978223e-17))
5((-1.256733146e-10 -1.804228231e-11 -1.522868781e-15) (1.053315813e-09 6.701947725e-15 -1.160083967e-10) (4.435248592e-15 -4.796029611e-10 2.32048154e-10) (2.669935374e-10 -2.02420633e-15 1.183822656e-10) (-7.434705101e-11 9.540655427e-12 5.24657478e-16))
1((1.621506829e-10 5.32388597e-11 -5.56722325e-14))
3((-3.299896072e-16 1.644158002e-10 3.084739731e-10) (0 0 0) (5.320981193e-10 -4.92802262e-11 -1.97209755e-14))
4((-1.492571576e-15 5.45436654e-10 1.870762486e-10) (0 0 0) (3.523115933e-10 -9.942443528e-12 -2.038241072e-13) (-1.416893568e-11 5.981514612e-15 -3.876976296e-11))
5((1.93151791e-16 2.281674426e-10 -2.84182415e-10) (-1.621506829e-10 -5.32388597e-11 5.56722325e-14) (-1.600599013e-10 -4.287912485e-16 -2.780517459e-10) (-2.230424431e-11 -2.616068577e-11 -8.296167033e-16) (-3.839021077e-16 5.574137729e-10 7.899259294e-11))
6((-3.177343566e-16 -4.530415484e-10 2.131506642e-10) (-5.320981193e-10 4.92802262e-11 1.97209755e-14) (1.600599013e-10 4.287912485e-16 2.780517459e-10) (-2.115841633e-10 9.064234596e-17 7.019883459e-11) (-3.249035266e-10 2.348080731e-11 -1.515107554e-15) (3.163543558e-16 -6.115111009e-10 5.909759257e-10))
6((1.873438309e-15 4.701097417e-10 9.739472971e-11) (-3.523115933e-10 9.942443528e-12 2.038241072e-13) (2.115841633e-10 -9.064234596e-17 -7.019883459e-11) (-2.79255856e-10 2.435773971e-12 -2.845854316e-15) (-1.076399267e-15 3.214990906e-10 2.971883047e-10) (1.705463207e-10 4.876900865e-16 1.527320397e-10))
4((-4.259913482e-16 5.003055978e-10 3.607074686e-11) (2.230424431e-11 2.616068577e-11 8.296167033e-16) (1.821169422e-15 7.377378699e-10 -8.871264368e-11) (-1.772487714e-11 7.457165146e-11 7.355682455e-16))
5((1.417674108e-14 -1.554603221e-09 -4.982920152e-10) (3.249035266e-10 -2.348080731e-11 1.515107554e-15) (3.903034623e-10 2.198528222e-15 1.724762416e-10) (-1.601125989e-14 -1.486115862e-09 -4.128274766e-10) (2.837871417e-10 3.106216315e-11 8.260370154e-17))
6((-4.435248592e-15 4.796029611e-10 -2.32048154e-10) (2.79255856e-10 -2.435773971e-12 2.845854316e-15) (-3.903034623e-10 -2.198528222e-15 -1.724762416e-10) (4.185908062e-15 3.725624751e-10 -3.405376883e-11) (-8.89871933e-10 5.769995094e-15 -3.511285549e-11) (2.062916685e-10 -3.234167174e-12 -1.522261346e-15))
2((2.211018058e-10 -4.896938881e-14 -2.732255893e-10) (1.913151607e-10 -1.511885446e-10 -4.971760811e-14))
4((-2.211018058e-10 4.896938881e-14 2.732255893e-10) (5.102755901e-11 1.932993207e-14 -1.531913281e-10) (-2.300617086e-10 5.329288747e-11 7.946015634e-15) (-1.692952523e-17 7.989640339e-11 -4.887786923e-10))
4((-5.102755901e-11 -1.932993207e-14 1.531913281e-10) (-1.378767793e-10 -1.175500428e-12 5.683993132e-14) (-2.892885164e-17 1.505496333e-10 -6.009235994e-10) (-3.761921267e-10 9.66366087e-14 -3.881052023e-10))
5((3.839021077e-16 -5.574137729e-10 -7.899259294e-11) (-1.913151607e-10 1.511885446e-10 4.971760811e-14) (2.690860222e-10 5.499727628e-16 2.614304958e-10) (-1.680531481e-10 1.662563406e-10 -5.47890362e-15) (-5.572454079e-16 -5.919901186e-10 1.148018253e-10))
5((-3.163543558e-16 6.115111009e-10 -5.909759257e-10) (2.300617086e-10 -5.329288747e-11 -7.946015634e-15) (-2.690860222e-10 -5.499727628e-16 -2.614304958e-10) (3.053839664e-10 1.570210728e-11 1.198104409e-15) (4.749412231e-16 6.393612609e-10 -1.924712058e-10))
5((1.076399267e-15 -3.214990906e-10 -2.971883047e-10) (1.378767793e-10 1.175500428e-12 -5.683993132e-14) (2.111296417e-10 -1.678967821e-11 1.759518406e-15) (-7.543421455e-16 -2.401448458e-10 -6.323821178e-11) (-5.480247016e-10 -1.573420514e-15 -1.626449597e-10))
5((-1.821169422e-15 -7.377378699e-10 8.871264368e-11) (1.680531481e-10 -1.662563406e-10 5.47890362e-15) (0 0 0) (1.476406899e-15 -5.817484692e-10 2.90957233e-11) (2.225116475e-10 1.883955906e-12 -7.798208777e-15))
6((1.601125989e-14 1.486115862e-09 4.128274766e-10) (-3.053839664e-10 -1.570210728e-11 -1.198104409e-15) (0 0 0) (-1.309396732e-09 -6.521409806e-15 -1.419347717e-10) (-2.826710119e-14 2.137207146e-09 4.362997665e-10) (-2.285126729e-10 -4.50974834e-11 6.553415109e-16))
6((-4.185908062e-15 -3.725624751e-10 3.405376883e-11) (-2.111296417e-10 1.678967821e-11 -1.759518406e-15) (1.309396732e-09 6.521409806e-15 1.419347717e-10) (1.35566284e-14 -1.012601276e-09 6.096449755e-11) (2.209164245e-10 -1.254873191e-15 1.405891591e-10) (-1.810466997e-10 4.773838423e-12 1.088072351e-15))
2((4.506475527e-11 1.260090146e-10 -9.142030594e-15) (0 0 0))
3((1.692952523e-17 -7.989640339e-11 4.887786923e-10) (9.081722081e-11 3.433422057e-14 -2.089439999e-11) (6.716701102e-10 -2.859809271e-11 -2.199476691e-14))
4((2.892885164e-17 -1.505496333e-10 6.009235994e-10) (-9.081722081e-11 -3.433422057e-14 2.089439999e-11) (4.185575396e-10 -2.530455158e-11 -1.719395697e-13) (5.541457211e-11 -1.420973341e-14 -1.093663712e-10))
5((5.572454079e-16 5.919901186e-10 -1.148018253e-10) (-4.506475527e-11 -1.260090146e-10 9.142030594e-15) (-7.035647016e-11 -8.610740569e-18 2.107671825e-10) (-1.119192745e-10 -1.037548756e-10 -3.906586737e-15) (-1.299466051e-15 8.769526568e-10 -5.903530118e-10))
6((-4.749412231e-16 -6.393612609e-10 1.924712058e-10) (-6.716701102e-10 2.859809271e-11 2.199476691e-14) (7.035647016e-11 8.610740569e-18 -2.107671825e-10) (-5.531133312e-11 -3.620867363e-18 -3.750359165e-10) (-5.022220016e-10 -4.399248868e-12 -1.789872204e-15) (2.392998773e-16 -4.870815843e-10 5.701662757e-10))
6((7.543421455e-16 2.401448458e-10 6.323821178e-11) (-4.185575396e-10 2.530455158e-11 1.719395697e-13) (5.531133312e-11 3.620867363e-18 3.750359165e-10) (-3.884833624e-10 -4.890643634e-11 -2.495687752e-15) (-6.28267334e-16 1.639271087e-10 1.447604331e-10) (2.346123642e-10 5.242685002e-16 4.198961357e-11))
4((-1.476406899e-15 5.817484692e-10 -2.90957233e-11) (1.119192745e-10 1.037548756e-10 3.906586737e-15) (4.740029919e-15 1.276058433e-09 -8.615866889e-10) (-1.885162921e-10 2.796524339e-10 6.966474347e-15))
5((2.826710119e-14 -2.137207146e-09 -4.362997665e-10) (5.022220016e-10 4.399248868e-12 1.789872204e-15) (7.838408355e-10 3.22879176e-15 1.368434009e-10) (-2.860206153e-14 -1.894399401e-09 -6.558744551e-10) (3.971187889e-10 -4.286956668e-12 -4.767297824e-16))
6((-1.35566284e-14 1.012601276e-09 -6.096449755e-11) (3.884833624e-10 4.890643634e-11 2.495687752e-15) (-7.838408355e-10 -3.22879176e-15 -1.368434009e-10) (5.592606618e-15 3.427793715e-10 -2.142712693e-10) (-4.057964855e-10 1.864591389e-15 -3.394440159e-10) (3.260671418e-10 6.633677811e-11 -8.741781737e-16))
3((3.864393898e-10 -6.64734001e-14 -1.653180692e-10) (2.893613666e-10 -2.712325153e-10 -5.95235374e-14) (0 0 0))
4((-3.864393898e-10 6.64734001e-14 1.653180692e-10) (5.012159562e-10 1.336647793e-13 -1.753719148e-10) (-3.428862062e-10 -4.194325711e-12 9.908164644e-15) (2.221216815e-16 4.020739545e-10 -2.888555639e-10))
4((-5.012159562e-10 -1.336647793e-13 1.753719148e-10) (-7.456883424e-17 -6.937899256e-11 -5.525639616e-10) (-7.775044101e-11 2.737158238e-11 2.297701394e-14) (-4.010979195e-10 6.625627094e-14 8.431099435e-11))
5((-2.893613666e-10 2.712325153e-10 5.95235374e-14) (-4.306795738e-10 -1.011938454e-15 4.719174356e-10) (-1.307893858e-10 3.021076772e-10 -2.651822687e-15) (-3.217668329e-15 -9.504660621e-10 1.24748179e-09) (1.29946605e-15 -8.769526568e-10 5.903530118e-10))
5((3.428862062e-10 4.194325711e-12 -9.908164644e-15) (4.306795738e-10 1.011938454e-15 -4.719174356e-10) (6.045292015e-10 -6.779914976e-11 1.521180311e-15) (8.376619549e-16 2.939309451e-10 -1.976023432e-12) (-2.392998804e-16 4.870815843e-10 -5.701662757e-10))
5((7.775044101e-11 -2.737158238e-11 -2.297701394e-14) (4.200847694e-10 -5.96732293e-11 2.099478291e-15) (-6.467852857e-16 -1.281985834e-10 4.376689992e-10) (6.282673343e-16 -1.639271087e-10 -1.447604331e-10) (-3.964733959e-10 -7.908715075e-16 -2.30638026e-10))
4((1.307893858e-10 -3.021076772e-10 2.651822687e-15) (0 0 0) (-4.740029921e-15 -1.276058433e-09 8.615866889e-10) (-3.67627758e-12 7.527533857e-11 -1.092375454e-15))
6((-6.045292015e-10 6.779914976e-11 -1.521180311e-15) (0 0 0) (-1.384008259e-09 -4.761321703e-15 -1.256631918e-10) (-6.79504579e-14 3.6447572e-09 8.318066296e-10) (2.860206153e-14 1.894399401e-09 6.558744551e-10) (-5.435823027e-10 1.312618172e-10 -1.417732107e-15))
6((-4.200847694e-10 5.96732293e-11 -2.099478291e-15) (1.384008259e-09 4.761321703e-15 1.256631918e-10) (1.918380854e-14 -1.023866578e-09 2.209378156e-10) (-5.592606616e-15 -3.427793715e-10 2.142712693e-10) (6.242806412e-10 -2.223017111e-15 -3.29497515e-10) (-4.671562134e-10 -6.635069201e-11 3.147740507e-15))
1((1.427716285e-10 2.079710553e-10 -2.942943966e-15))
3((-2.221216815e-16 -4.020739545e-10 2.888555639e-10) (3.309147825e-10 8.810902777e-14 1.665111616e-10) (8.903910455e-10 -7.697178652e-11 -2.496847426e-14))
4((7.456883424e-17 6.937899256e-11 5.525639616e-10) (-3.309147825e-10 -8.810902777e-14 -1.665111616e-10) (4.673771357e-10 -4.148346647e-11 -1.373962704e-13) (0 0 0))
5((3.217668329e-15 9.504660621e-10 -1.24748179e-09) (-1.427716285e-10 -2.079710553e-10 2.942943966e-15) (-2.318749801e-10 -5.919339046e-16 -2.476246993e-10) (-3.209318732e-10 -1.624206643e-10 -9.563276836e-15) (-1.982821926e-14 1.609215761e-09 -1.689849682e-09))
6((-8.376619549e-16 -2.939309451e-10 1.976023432e-12) (-8.903910455e-10 7.697178652e-11 2.496847426e-14) (2.318749801e-10 5.919339046e-16 2.476246993e-10) (-1.092391018e-09 -5.636198033e-16 2.423747578e-10) (-1.173035309e-09 7.468249188e-11 -5.05375523e-15) (7.251089908e-15 -7.419685223e-10 -2.152111634e-10))
6((6.467852857e-16 1.281985834e-10 -4.376689992e-10) (-4.673771357e-10 4.148346647e-11 1.373962704e-13) (1.092391018e-09 5.636198033e-16 -2.423747578e-10) (-8.415835243e-10 1.784053831e-10 -6.982492771e-15) (-5.400529118e-16 -1.53295122e-10 -9.656720635e-10) (8.172854295e-10 9.594641599e-16 3.839494367e-10))
2((3.209318732e-10 1.624206643e-10 9.563276836e-15) (4.742182274e-10 2.148432167e-10 -1.300470383e-14))
5((6.79504579e-14 -3.6447572e-09 -8.318066296e-10) (1.173035309e-09 -7.468249188e-11 5.05375523e-15) (1.364414714e-09 3.198221631e-15 -4.624668569e-11) (-8.054228986e-14 -3.083192058e-09 -1.408327885e-09) (1.267388022e-09 -1.428086332e-10 -4.869002647e-15))
6((-1.918380854e-14 1.023866578e-09 -2.209378156e-10) (8.415835243e-10 -1.784053831e-10 6.982492771e-15) (-1.364414714e-09 -3.198221631e-15 4.624668569e-11) (4.764210861e-14 1.881125567e-09 -5.445275319e-10) (-9.513735788e-10 1.807527583e-15 3.384782724e-10) (9.391452766e-10 -1.008886684e-10 -5.244983833e-15))
2((-3.545538699e-10 1.330232157e-16 7.145206947e-10) (7.680075241e-10 6.210495831e-11 4.08517474e-15))
3((3.545538699e-10 -1.330232157e-16 -7.145206947e-10) (-1.794631121e-10 -2.994582202e-16 -3.03839116e-10) (-4.819510139e-10 -2.356249489e-12 -3.109972084e-15))
3((1.794631121e-10 2.994582202e-16 3.03839116e-10) (1.890880563e-10 -9.577723522e-12 1.326037536e-15) (-4.263663816e-10 3.494972662e-16 -1.454462673e-10))
4((1.982821926e-14 -1.609215761e-09 1.689849682e-09) (-7.680075241e-10 -6.210495831e-11 -4.08517474e-15) (1.848993454e-10 2.148655197e-16 -1.871542798e-11) (1.201665415e-09 -1.57060781e-11 5.421889857e-15))
5((-7.251089908e-15 7.419685223e-10 2.152111634e-10) (4.819510139e-10 2.356249489e-12 3.109972084e-15) (-1.848993454e-10 -2.148655197e-16 1.871542798e-11) (1.040632953e-10 -3.063669983e-16 -7.696828919e-10) (2.608967619e-09 -1.158124777e-10 4.98332965e-15))
5((5.400529118e-16 1.53295122e-10 9.656720635e-10) (-1.890880563e-10 9.577723522e-12 -1.326037536e-15) (-1.040632953e-10 3.063669983e-16 7.696828919e-10) (2.126555325e-09 -2.157077399e-10 3.390255766e-15) (-1.230863247e-09 -8.22106053e-16 -5.581355863e-10))
3((-1.201665415e-09 1.57060781e-11 -5.421889857e-15) (0 0 0) (-8.81905746e-10 5.900969823e-11 2.008264763e-15))
5((8.054228986e-14 3.083192058e-09 1.408327885e-09) (-2.608967619e-09 1.158124777e-10 -4.98332965e-15) (0 0 0) (-8.942262508e-10 -1.318476407e-15 2.65119501e-10) (-1.026518723e-09 1.107857353e-10 -7.767032007e-16))
5((-4.764210861e-14 -1.881125567e-09 5.445275319e-10) (-2.126555325e-09 2.157077399e-10 -3.390255766e-15) (8.942262508e-10 1.318476407e-15 -2.65119501e-10) (2.868455927e-09 -2.977331728e-15 -6.759527359e-10) (-9.914604264e-10 -1.8588388e-12 2.918533958e-15))
4((-1.45906705e-16 8.614756001e-11 9.514287533e-11) (1.239740625e-10 3.58180536e-12 -4.133701785e-14) (-1.259932029e-11 4.000237683e-15 4.626071319e-11) (-5.220889828e-11 -6.251208829e-15 1.650767767e-11))
2((1.698256463e-10 1.402097407e-11 -7.75583788e-14) (5.220889828e-11 6.251208829e-15 -1.650767767e-11))
2((6.854539292e-18 -1.14065223e-11 -8.928698872e-11) (6.561080295e-11 -9.764142032e-12 -1.017801994e-14))
4((-1.239740625e-10 -3.58180536e-12 4.133701785e-14) (-7.195568396e-11 -1.530134727e-11 -5.685397607e-17) (4.244737319e-18 1.128320053e-11 7.206525398e-11) (1.992940103e-10 -7.20623205e-16 -4.316390207e-11))
5((-1.698256463e-10 -1.402097407e-11 7.75583788e-14) (0 0 0) (-1.186018207e-10 -8.54807324e-12 -9.726610393e-16) (3.938660007e-16 1.833590332e-10 -1.904590012e-11) (-1.992940103e-10 7.20623205e-16 4.316390207e-11))
4((-6.561080295e-11 9.764142032e-12 1.017801994e-14) (0 0 0) (-6.158461203e-11 1.565410288e-11 -2.01596039e-17) (-3.051775744e-16 -1.651708624e-10 -2.410858688e-10))
3((7.195568396e-11 1.530134727e-11 5.685397607e-17) (0 0 0) (6.353907557e-11 2.605956666e-11 1.401032547e-14))
3((1.186018207e-10 8.54807324e-12 9.726610393e-16) (-5.162105997e-16 2.092576589e-10 6.078188697e-10) (9.908851693e-11 -1.272517333e-12 -4.071392647e-16))
3((6.158461203e-11 -1.565410288e-11 2.01596039e-17) (2.33502959e-17 -7.403160263e-12 4.078988563e-10) (4.919658158e-11 -3.73003567e-12 2.658730843e-15))
4((1.45906705e-16 -8.614756001e-11 -9.514287533e-11) (1.100186774e-10 -3.820482256e-15 -1.188929031e-10) (3.456784468e-10 -2.572179044e-11 -1.151628001e-13) (1.365508738e-10 -4.334754535e-14 -2.556393261e-10))
3((-1.100186774e-10 3.820482256e-15 1.188929031e-10) (-4.746871354e-11 6.91094549e-15 2.159561328e-10) (2.394688156e-10 -2.457029076e-11 -7.232943401e-14))
4((-6.854539292e-18 1.14065223e-11 8.928698872e-11) (4.746871354e-11 -6.91094549e-15 -2.159561328e-10) (4.12551712e-17 -5.205055622e-11 -3.92787678e-10) (2.006354831e-10 2.417769918e-11 -3.104142154e-14))
6((-4.244737319e-18 -1.128320053e-11 -7.206525398e-11) (-3.456784468e-10 2.572179044e-11 1.151628001e-13) (-1.228243625e-16 6.556854917e-12 1.589279867e-09) (-1.851289334e-10 6.540110549e-16 2.126141363e-11) (-6.668501802e-11 5.516212328e-11 -2.07884765e-16) (-1.631871005e-10 -6.437518184e-16 -2.547052721e-10))
6((-3.938660007e-16 -1.833590332e-10 1.904590012e-11) (-2.394688156e-10 2.457029076e-11 7.232943401e-14) (1.851289334e-10 -6.540110549e-16 -2.126141363e-11) (2.723784213e-10 3.596824895e-16 1.203294066e-11) (-9.248168791e-11 4.216335519e-11 -8.61138488e-16) (4.066353129e-16 -1.86165133e-10 6.357330543e-10))
5((3.051775744e-16 1.651708624e-10 2.410858688e-10) (-2.006354831e-10 -2.417769918e-11 3.104142154e-14) (-2.723784213e-10 -3.596824895e-16 -1.203294066e-11) (-4.039974959e-16 5.12105782e-11 1.589527523e-09) (-3.793442242e-11 -4.686793747e-11 1.286489161e-16))
6((0 0 0) (6.668501802e-11 -5.516212328e-11 2.07884765e-16) (-7.735958074e-16 -2.128268144e-10 -1.397883892e-09) (-2.86727197e-10 -1.142398116e-15 -1.578808607e-11) (1.273788859e-10 -1.324507663e-14 -5.435730793e-11) (-1.627315957e-10 -5.213800667e-11 -3.613601277e-14))
6((5.162105997e-16 -2.092576589e-10 -6.078188697e-10) (9.248168791e-11 -4.216335519e-11 8.61138488e-16) (2.86727197e-10 1.142398116e-15 1.578808607e-11) (6.085344804e-11 -3.813782464e-16 -1.75226143e-10) (6.496066431e-16 1.578759137e-10 -5.675277524e-10) (6.874950187e-11 -4.065771129e-11 -4.07458204e-16))
5((-2.33502959e-17 7.403160263e-12 -4.078988563e-10) (3.793442242e-11 4.686793747e-11 -1.286489161e-16) (-6.085344804e-11 3.813782464e-16 1.75226143e-10) (-1.563067247e-15 -4.868631128e-10 -1.309152121e-09) (-5.779307854e-11 2.343702948e-11 -3.055564156e-15))
4((9.086005901e-11 -2.04356601e-15 2.136337557e-11) (4.460772439e-11 1.619585063e-11 -1.019335155e-14) (-5.07581097e-16 2.747156969e-10 6.140809495e-10) (-1.408378152e-10 5.938526571e-14 -3.303024076e-11))
3((-9.086005901e-11 2.04356601e-15 -2.136337557e-11) (3.635290313e-11 2.444533111e-11 -7.638372599e-15) (3.033865279e-16 -8.380775983e-11 4.134082219e-10))
3((-4.12551712e-17 5.205055622e-11 3.92787678e-10) (7.032486183e-11 -3.222306827e-11 -1.083919272e-14) (-7.269804912e-17 1.72455959e-10 4.044059072e-11))
6((1.228243625e-16 -6.556854917e-12 -1.589279867e-09) (-4.460772439e-11 -1.619585063e-11 1.019335155e-14) (3.029853002e-10 -1.062267022e-15 -2.968066303e-11) (1.687165306e-10 -3.962377335e-11 -8.121924069e-17) (2.662171648e-16 1.814214441e-10 -7.634878163e-10) (0 0 0))
6((-4.066353129e-16 1.86165133e-10 -6.357330543e-10) (-3.635290313e-11 -2.444533111e-11 7.638372599e-15) (-3.029853002e-10 1.062267022e-15 2.968066303e-11) (0 0 0) (1.34234717e-10 -2.692209603e-11 9.360915094e-16) (-6.714413855e-17 1.237538859e-12 -6.645132028e-11))
5((4.039974959e-16 -5.12105782e-11 -1.589527523e-09) (-7.032486183e-11 3.222306827e-11 1.083919272e-14) (0 0 0) (1.354571544e-10 4.420295787e-11 1.432370285e-16) (2.904881186e-17 4.661666503e-11 -2.862073805e-10))
6((7.735958074e-16 2.128268144e-10 1.397883892e-09) (-1.687165306e-10 3.962377335e-11 8.121924069e-17) (-6.681423092e-11 -2.55312567e-16 -4.031634655e-11) (-1.596625892e-15 3.06699439e-10 7.954856764e-10) (-2.403862463e-10 2.10571508e-14 -5.529302398e-11) (-4.339289078e-10 6.581563577e-11 -9.610599245e-14))
6((-6.496066431e-16 -1.578759137e-10 5.675277524e-10) (-1.34234717e-10 2.692209603e-11 -9.360915094e-16) (6.681423092e-11 2.55312567e-16 4.031634655e-11) (1.532191123e-10 -9.469083256e-16 1.56591298e-10) (2.539597483e-15 -4.469478626e-10 3.88321271e-10) (-8.952614978e-11 4.929392659e-11 1.816052807e-16))
5((1.563067247e-15 4.868631128e-10 1.309152121e-09) (-1.354571544e-10 -4.420295787e-11 -1.432370285e-16) (-1.532191123e-10 9.469083256e-16 -1.56591298e-10) (-1.834440696e-15 3.995466239e-10 5.574097465e-10) (-2.144650524e-10 -7.268928283e-11 -1.136084857e-14))
4((5.07581097e-16 -2.747156969e-10 -6.140809495e-10) (-5.623592861e-10 1.261329406e-14 -1.850479155e-10) (3.578305284e-10 -4.402918901e-11 -8.152024483e-14) (0 0 0))
4((-3.033865279e-16 8.380775983e-11 -4.134082219e-10) (5.623592861e-10 -1.261329406e-14 1.850479155e-10) (4.188907283e-10 -2.246668914e-14 3.856979574e-10) (3.161649068e-10 -5.359922659e-12 -6.588244031e-14))
3((7.269804912e-17 -1.72455959e-10 -4.044059072e-11) (-4.188907283e-10 2.246668914e-14 -3.856979574e-10) (3.743807696e-10 2.580765924e-11 -5.749256341e-14))
6((-2.662171648e-16 -1.814214441e-10 7.634878163e-10) (-3.578305284e-10 4.402918901e-11 8.152024483e-14) (0 0 0) (-2.086377282e-10 3.509922981e-11 -2.396683888e-16) (-1.806551431e-10 -7.225044459e-16 4.913321589e-11) (6.701971087e-16 -2.185886178e-10 1.006380441e-09))
6((6.714413855e-17 -1.237538859e-12 6.645132028e-11) (-3.161649068e-10 5.359922659e-12 6.588244031e-14) (0 0 0) (-1.825130563e-10 -1.801520687e-11 -1.252260989e-15) (-6.284147224e-16 1.327789282e-10 5.466097741e-10) (0 0 0))
5((-2.904881186e-17 -4.661666503e-11 2.862073805e-10) (-3.743807696e-10 -2.580765924e-11 5.749256341e-14) (-1.633957029e-10 2.792518144e-12 -4.010066792e-17) (-6.112212247e-16 1.120171761e-10 8.90767713e-10) (0 0 0))
6((1.596625892e-15 -3.06699439e-10 -7.954856764e-10) (2.086377282e-10 -3.509922981e-11 2.396683888e-16) (-1.620314923e-10 -6.51537565e-16 -2.501861194e-10) (2.497212926e-10 -1.582748116e-14 3.644071167e-11) (-6.858125479e-15 -9.206493234e-10 -1.531701273e-09) (-6.904326421e-11 -1.10719441e-10 -1.596355614e-14))
6((-2.539597483e-15 4.469478626e-10 -3.88321271e-10) (1.825130563e-10 1.801520687e-11 1.252260989e-15) (1.620314923e-10 6.51537565e-16 2.501861194e-10) (6.077651822e-10 -3.681476717e-15 6.174219592e-11) (2.449089974e-15 1.005886725e-09 -1.410540293e-10) (1.592062324e-10 -3.544613735e-11 -8.230665013e-16))
5((1.834440696e-15 -3.995466239e-10 -5.574097465e-10) (1.633957029e-10 -2.792518144e-12 4.010066792e-17) (-6.077651822e-10 3.681476717e-15 -6.174219592e-11) (-2.32498793e-15 -1.099795668e-09 -5.711097948e-10) (9.131404684e-12 -5.058006274e-12 4.813346682e-16))
4((4.186390889e-17 -1.080147981e-11 -2.145682387e-10) (2.910122122e-10 4.425462132e-15 -1.404775455e-10) (-3.811845009e-10 8.577618941e-11 5.841011922e-14) (3.467374341e-10 -1.463469794e-13 4.381619782e-11))