/*--------------------------------*- C++ -*----------------------------------*\
  =========                 |
  \\      /  F ield         | OpenFOAM: The Open Source CFD Toolbox
   \\    /   O peration     | Website:  https://openfoam.org
    \\  /    A nd           | Version:  7
     \\/     M anipulation  |
\*---------------------------------------------------------------------------*/
FoamFile
{
    version     2.0;
    format      ascii;
    class       vectorFieldField;
    location    "2/lagrangian/steelCloud";
    object      collisionRecordsWallData;
}
// * * * * * * * * * * * * * * * * * * * * * * * * * * * * * * * * * * * * * //


396
(
2((6.698038819e-10 -5.26703749e-11 -8.840447417e-27) (0 0 0))
1((6.223955343e-10 -6.161462708e-11 4.861659368e-26))
1((5.272647868e-10 9.314234634e-11 4.479077713e-26))
1((0 0 0))
0()
0()
1((0 0 0))
0()
0()
2((7.705458829e-10 1.141715026e-10 1.692136102e-26) (0 0 0))
1((1.269329476e-09 -9.413204698e-12 0))
1((1.045484762e-09 -2.16927098e-10 6.128582798e-26))
1((0 0 0))
0()
0()
1((0 0 0))
0()
0()
2((6.89321568e-10 -2.880370634e-10 -1.052078858e-26) (0 0 0))
1((-3.197501491e-10 1.306976853e-10 0))
1((5.149308693e-10 -3.529715983e-11 4.557489676e-26))
1((0 0 0))
0()
0()
1((0 0 0))
0()
0()
2((7.171245464e-10 1.621647201e-10 3.228848346e-26) (-3.599663972e-11 0 -2.427482696e-09))
1((1.804016845e-09 -3.212244456e-10 0))
1((1.332649441e-09 -2.936827685e-10 -6.351291042e-26))
1((0 0 0))
0()
0()
1((0 0 0))
0()
0()
2((7.508430043e-10 -8.051456549e-10 8.28208514e-26) (4.292970808e-11 0 -2.357511096e-09))
1((-4.751519785e-10 2.335682737e-10 0))
1((-5.580375441e-11 -2.98787072e-11 -3.544185875e-26))
1((0 0 0))
0()
0()
1((5.825911794e-09 0 -2.416335199e-09))
0()
0()
2((5.51735218e-10 2.940244622e-10 3.264874126e-26) (-1.06792875e-10 0 -2.396731366e-09))
1((3.243012158e-09 -2.495625038e-11 0))
1((2.017835638e-09 -3.554160332e-10 8.938084675e-26))
1((0 0 0))
0()
0()
1((0 0 0))
0()
0()
1((7.054798584e-10 -6.059964506e-10 -3.991643334e-26))
1((-8.617629486e-10 2.488625935e-10 0))
1((-2.398135856e-10 9.735520664e-11 2.662378028e-26))
1((0 0 0))
0()
0()
1((5.98512835e-09 0 -2.396843056e-09))
0()
0()
2((7.370401393e-10 1.893594483e-10 -2.314038791e-26) (1.179499948e-10 0 -2.370214166e-09))
1((4.029854813e-09 -1.724326667e-10 0))
1((2.471950355e-09 -9.718007207e-11 -5.208985878e-26))
1((0 0 0))
0()
0()
1((0 0 0))
0()
0()
1((1.659964432e-09 -1.232881383e-09 -1.217708845e-27))
1((-1.55342031e-09 2.065399282e-11 0))
1((1.944533626e-10 1.994886825e-10 -1.800696211e-25))
1((0 0 0))
0()
0()
1((0 0 0))
0()
0()
2((3.741230887e-10 5.518250086e-10 -3.813557801e-26) (-6.488051536e-11 3.654185381e-25 -2.524290538e-09))
1((4.886581335e-09 -4.371623073e-10 0))
1((2.89922974e-09 -8.220455648e-11 -9.552213652e-26))
1((0 0 0))
0()
0()
1((-5.666624844e-10 0 -2.622365988e-09))
0()
0()
3((0 0 0) (4.907368168e-09 1.545610014e-10 1.038297369e-25) (0 0 0))
2((0 0 0) (-1.196952173e-09 -2.854921675e-10 0))
2((0 0 0) (1.385037688e-09 2.398573676e-10 -1.493537562e-25))
1((0 0 0))
1((0 0 0))
1((0 0 0))
2{(0 0 0)}
1((0 0 0))
1((0 0 0))
1((7.010460542e-10 3.692762462e-11 3.99150266e-27))
1((6.880437394e-10 3.858997705e-11 1.820225144e-27))
2((8.013371535e-10 2.989430586e-11 -3.329604831e-27) (0 0 0))
0()
0()
1((0 0 0))
0()
0()
1((0 0 0))
1((1.221846205e-09 -1.936611109e-11 -4.974130402e-26))
1((8.94247501e-10 8.887645029e-11 1.975545594e-26))
2((8.444197176e-10 1.851998815e-10 -1.789817345e-25) (0 0 0))
0()
0()
0()
0()
0()
1((0 0 0))
1((-3.167623097e-10 1.280280274e-10 1.020987652e-25))
1((-2.986890118e-10 5.868531939e-11 -1.023279085e-26))
2((4.179214195e-10 -9.091389424e-11 2.217200448e-25) (0 0 0))
0()
0()
1((0 0 0))
0()
0()
0()
1((1.97563205e-09 -7.013059096e-11 0))
1((1.449299649e-09 -2.971914376e-10 0))
2((2.351700364e-09 2.473408546e-10 -3.163034321e-25) (-1.08318484e-10 -4.062381495e-25 -2.384144053e-09))
0()
0()
0()
0()
0()
1((0 0 0))
1((-1.322963525e-09 3.018588735e-10 0))
1((3.438399962e-12 2.10708076e-10 0))
2((-4.209302779e-10 -2.021634438e-10 -1.02141004e-25) (8.213278496e-11 -3.500971315e-25 -2.446743557e-09))
0()
0()
1((0 0 0))
0()
0()
1((0 0 0))
1((3.801560456e-09 -1.199676034e-10 0))
1((2.550408793e-09 -4.06153589e-11 0))
2((3.091637519e-09 3.322706589e-11 0) (0 0 0))
0()
0()
0()
0()
0()
1((0 0 0))
1((-3.165492771e-09 1.295942177e-10 0))
1((-3.429572428e-10 3.254152263e-10 0))
2((-2.262020478e-09 -1.604518771e-10 0) (8.06684445e-12 0 -2.421582533e-09))
0()
0()
1((0 0 0))
0()
0()
0()
1((5.690664505e-09 -1.510083613e-10 0))
1((3.034087263e-09 2.77127475e-10 0))
2((4.415764007e-09 -3.075692907e-10 0) (0 0 0))
0()
0()
0()
0()
0()
1((0 0 0))
1((-5.703520777e-09 -1.787456529e-10 0))
1((1.159004716e-10 3.125883872e-10 0))
2((-3.41798635e-09 -1.446693945e-10 0) (1.71905317e-10 1.527370156e-24 -2.314149729e-09))
0()
0()
1((0 0 0))
0()
0()
0()
1((9.15104031e-09 -1.567923112e-10 0))
1((3.343087248e-09 -5.17802046e-11 0))
2((6.471303728e-09 4.727520459e-10 0) (0 0 0))
0()
0()
0()
0()
0()
1((0 0 0))
2((0 0 0) (-9.808812346e-09 -3.74727718e-10 0))
2((0 0 0) (9.799486338e-10 1.169123665e-09 0))
3((0 0 0) (-6.975607222e-09 -1.698531709e-09 0) (0 0 0))
1((0 0 0))
1((0 0 0))
2((0 0 0) (1.007901802e-08 0 -2.26801827e-09))
1((0 0 0))
1((0 0 0))
1((0 0 0))
1((0 0 0))
0()
0()
1((0 0 0))
0()
0()
1((0 0 0))
0()
0()
1((0 0 0))
0()
0()
1((0 0 0))
0()
0()
1((0 0 0))
0()
0()
0()
0()
0()
1((0 0 0))
0()
0()
1((0 0 0))
0()
0()
1((-4.825869047e-09 0 -2.366415344e-09))
0()
0()
1((0 0 0))
0()
0()
1((0 0 0))
0()
0()
0()
0()
0()
1((0 0 0))
0()
0()
1((0 0 0))
0()
0()
1((-4.705792237e-09 0 -2.44384535e-09))
0()
0()
1((0 0 0))
0()
0()
1((0 0 0))
0()
0()
0()
0()
0()
1((0 0 0))
0()
0()
1((0 0 0))
0()
0()
1((0 0 0))
0()
0()
1((0 0 0))
0()
0()
1((0 0 0))
0()
0()
0()
0()
0()
1((0 0 0))
0()
0()
1((0 0 0))
0()
0()
1((-1.430271493e-08 0 -7.181021542e-09))
0()
0()
1((0 0 0))
0()
0()
1((0 0 0))
0()
0()
1((0 0 0))
1((0 0 0))
1((0 0 0))
2{(0 0 0)}
1((0 0 0))
1((0 0 0))
2{(0 0 0)}
1((0 0 0))
1((0 0 0))
0()
0()
1((0 0 0))
0()
0()
0()
0()
0()
1((0 0 0))
0()
0()
0()
0()
0()
1((0 0 0))
0()
0()
1((0 0 0))
0()
0()
1((0 0 0))
0()
0()
0()
0()
0()
1((0 0 0))
0()
0()
0()
0()
0()
1((0 0 0))
0()
0()
1((0 0 0))
0()
0()
1((4.048237914e-09 0 -2.390092984e-09))
0()
0()
0()
0()
0()
1((0 0 0))
0()
0()
0()
0()
0()
1((0 0 0))
0()
0()
1((0 0 0))
0()
0()
1((0 0 0))
0()
0()
0()
0()
0()
1((0 0 0))
0()
0()
0()
0()
0()
1((0 0 0))
0()
0()
1((0 0 0))
0()
0()
1((1.19214731e-08 8.272313395e-23 -7.034823808e-09))
0()
0()
0()
0()
0()
1((0 0 0))
0()
0()
0()
0()
0()
1((0 0 0))
0()
0()
1((0 0 0))
1((0 0 0))
1((0 0 0))
2((0 0 0) (1.875514321e-08 0 -8.670025436e-09))
1((0 0 0))
1((0 0 0))
1((0 0 0))
1((0 0 0))
1((0 0 0))
2{(0 0 0)}
)


// ************************************************************************* //
