/*--------------------------------*- C++ -*----------------------------------*\
  =========                 |
  \\      /  F ield         | OpenFOAM: The Open Source CFD Toolbox
   \\    /   O peration     | Website:  https://openfoam.org
    \\  /    A nd           | Version:  7
     \\/     M anipulation  |
\*---------------------------------------------------------------------------*/
FoamFile
{
    version     2.0;
    format      ascii;
    class       vectorFieldField;
    location    "2/lagrangian/steelCloud";
    object      collisionRecordsWallPRel;
}
// * * * * * * * * * * * * * * * * * * * * * * * * * * * * * * * * * * * * * //


396
(
2((0 -8.67361738e-19 -0.005998836378) (0 -0.005999997241 0))
1((0 -3.469446952e-18 -0.00599883589))
1((0 0 -0.005998836038))
1((0 -0.005999997979 -3.469446952e-18))
0()
0()
1((0 -0.005999994 0))
0()
0()
2((0 0 -0.005998836571) (0 -0.00599999604 0))
1((0 0 -0.00599883527))
1((0 3.469446952e-18 -0.005998836319))
1((0 -0.005999989579 0))
0()
0()
1((0 -0.005999995598 0))
0()
0()
2((0 0 -0.005998836181) (0 -0.005999995669 0))
1((0 0 -0.005998838052))
1((0 3.469446952e-18 -0.005998837842))
1((0 -0.005999993477 0))
0()
0()
1((0 -0.005999983275 0))
0()
0()
2((0 8.67361738e-19 -0.005998837243) (0 -0.005999989481 0))
1((0 0 -0.005998834182))
1((0 0 -0.005998833211))
1((0 -0.005999986921 0))
0()
0()
1((0 -0.005999987483 0))
0()
0()
2((0 0 -0.005998836658) (0 -0.005999989739 0))
1((0 0 -0.005998837704))
1((0 -3.469446952e-18 -0.005998838003))
1((0 -0.005999992172 0))
0()
0()
1((0 -0.005999969066 0))
0()
0()
2((0 0 -0.005998837517) (0 -0.005999990135 0))
1((0 0 -0.005998834739))
1((0 3.469446952e-18 -0.005998835421))
1((0 -0.005999982492 0))
0()
0()
1((0 -0.005999979907 0))
0()
0()
1((0 0 -0.005998836191))
1((0 0 -0.005998837316))
1((0 3.469446952e-18 -0.005998838165))
1((0 -0.005999991521 0))
0()
0()
1((0 -0.005999950718 0))
0()
0()
2((0 8.67361738e-19 -0.005998840071) (0 -0.00599998815 0))
1((0 0 -0.005998833786))
1((0 0 -0.005998834803))
1((0 -0.005999981075 0))
0()
0()
1((0 -0.005999978234 0))
0()
0()
1((0 0 -0.005998834592))
1((0 0 -0.005998839194))
1((0 0 -0.005998836827))
1((0 -0.005999995011 0))
0()
0()
1((0 -0.005999928847 0))
0()
0()
2((0 -8.67361738e-19 -0.0059988431) (0 -0.005999983631 -8.67361738e-19))
1((0 0 -0.005998832898))
1((0 0 -0.005998836226))
1((0 -0.005999963575 0))
0()
0()
1((0 -0.005999983226 0))
0()
0()
3((0.005985372689 8.67361738e-19 0) (0 8.67361738e-19 -0.005998823644) (0 -0.005999977284 0))
2((0.00598538195 0 0) (0 0 -0.005998817539))
2((0.00598539322 0 0) (0 0 -0.005998813144))
1((0.005985445023 0 0))
1((0.005985462052 0 0))
1((0.005985469471 0 0))
2((0.005985500973 0 0) (0 -0.005999861891 0))
1((0.005985494923 0 0))
1((0.00598551399 0 0))
1((0 0 -0.005998835805))
1((0 0 -0.005998835681))
2((0 0 -0.005998835943) (-4.163336342e-17 0.005999998076 0))
0()
0()
1((-4.163336342e-17 0.005999995843 0))
0()
0()
1((0 0.005999998908 -3.469446952e-18))
1((0 0 -0.005998836236))
1((0 0 -0.005998835792))
2((0 0 -0.005998835834) (0 0.005999991203 0))
0()
0()
0()
0()
0()
1((0 0.005999982656 0))
1((0 0 -0.005998837248))
1((0 0 -0.005998837286))
2((0 0 -0.005998837455) (0 0.005999995506 0))
0()
0()
1((-4.163336342e-17 0.005999990568 0))
0()
0()
0()
1((0 0 -0.005998835029))
1((0 0 -0.005998833652))
2((0 0 -0.005998835109) (-4.163336342e-17 0.005999988993 8.67361738e-19))
0()
0()
0()
0()
0()
1((-4.163336342e-17 0.005999965953 0))
1((0 0 -0.005998835687))
1((0 0 -0.005998837156))
2((0 -1.387778781e-17 -0.005998838189) (0 0.005999987661 -8.67361738e-19))
0()
0()
1((0 0.00599998561 0))
0()
0()
1((0 0.005999993583 -3.469446952e-18))
1((0 0 -0.00599883716))
1((0 0 -0.005998836146))
2((0 0 -0.005998836241) (0 0.005999992205 0))
0()
0()
0()
0()
0()
1((0 0.005999950305 0))
1((0 0 -0.005998836103))
1((0 0 -0.005998838273))
2((0 0 -0.005998837492) (0 0.005999983211 0))
0()
0()
1((0 0.005999993432 0))
0()
0()
0()
1((0 0 -0.005998835519))
1((0 0 -0.005998833889))
2((0 0 -0.005998833839) (0 0.00599999604 0))
0()
0()
0()
0()
0()
1((0 0.00599992823 3.469446952e-18))
1((0 0 -0.005998835232))
1((0 0 -0.005998839092))
2((0 0 -0.00599883986) (-4.163336342e-17 0.005999979447 8.67361738e-19))
0()
0()
1((-4.163336342e-17 0.005999988088 0))
0()
0()
0()
1((0 0 -0.005998837635))
1((0 0 -0.005998835112))
2((0 0 -0.005998831756) (0 0.005999989552 0))
0()
0()
0()
0()
0()
1((0 0.005999900731 3.469446952e-18))
2((0.005985385408 0 8.326672685e-17) (0 0 -0.005998819289))
2((0.005985382837 0 0) (0 0 -0.005998815859))
3((0.005985365775 0 0) (0 0 -0.005998834454) (0 0.005999981579 0))
1((0.005985481256 0 8.326672685e-17))
1((0.005985459762 6.938893904e-18 0))
2((0.005985456275 0 0) (0 0.00599994614 0))
1((0.005985499475 6.938893904e-18 8.326672685e-17))
1((0.005985503592 0 0))
1((0.005985477657 0 0))
1((0 -0.005999999932 0))
0()
0()
1((0 -0.005999997508 0))
0()
0()
1((0 -0.005999998744 0))
0()
0()
1((0 -0.0059999888 0))
0()
0()
1((0 -0.005999995558 6.938893904e-18))
0()
0()
1((0 -0.005999997461 0))
0()
0()
0()
0()
0()
1((0 -0.005999994012 0))
0()
0()
1((0 -0.005999999743 0))
0()
0()
1((0 -0.00599997494 0))
0()
0()
1((0 -0.00599999334 0))
0()
0()
1((0 -0.005999997023 -1.387778781e-17))
0()
0()
0()
0()
0()
1((0 -0.00599999087 0))
0()
0()
1((0 -0.005999996145 0))
0()
0()
1((0 -0.005999961494 0))
0()
0()
1((0 -0.005999993965 0))
0()
0()
1((0 -0.005999994165 0))
0()
0()
0()
0()
0()
1((0 -0.005999985695 0))
0()
0()
1((0 -0.005999991571 0))
0()
0()
1((0 -0.005999951677 0))
0()
0()
1((0 -0.005999988901 0))
0()
0()
1((0 -0.005999986491 0))
0()
0()
0()
0()
0()
1((0 -0.005999981176 0))
0()
0()
1((0 -0.005999990929 0))
0()
0()
1((0 -0.005999921345 0))
0()
0()
1((0 -0.005999986415 0))
0()
0()
1((0 -0.005999969926 0))
0()
0()
1((0.005985458171 0 8.326672685e-17))
1((0.005985476653 0 8.326672685e-17))
1((0.005985484367 0 8.326672685e-17))
2((0.005985475076 0 0) (0 -0.005999968192 0))
1((0.00598548291 0 8.326672685e-17))
1((0.005985493326 0 0))
2((0.005985566187 0 0) (0 -0.005999991052 0))
1((0.005985581076 0 8.326672685e-17))
1((0.005985591302 0 0))
0()
0()
1((0 0.005999995924 0))
0()
0()
0()
0()
0()
1((0 0.005999999147 0))
0()
0()
0()
0()
0()
1((0 0.005999992887 -6.938893904e-18))
0()
0()
1((0 0.005999999133 0))
0()
0()
1((0 0.005999987894 0))
0()
0()
0()
0()
0()
1((0 0.005999998174 0))
0()
0()
0()
0()
0()
1((0 0.005999988863 0))
0()
0()
1((0 0.005999999133 0))
0()
0()
1((0 0.00599996753 0))
0()
0()
0()
0()
0()
1((0 0.005999995406 0))
0()
0()
0()
0()
0()
1((0 0.005999987662 0))
0()
0()
1((0 0.005999992466 0))
0()
0()
1((0 0.005999954579 0))
0()
0()
0()
0()
0()
1((0 0.005999992276 0))
0()
0()
0()
0()
0()
1((0 0.005999981966 0))
0()
0()
1((0 0.005999986094 0))
0()
0()
1((-4.163336342e-17 0.005999934311 0))
0()
0()
0()
0()
0()
1((-4.163336342e-17 0.005999982102 0))
0()
0()
0()
0()
0()
1((0 0.00599997299 0))
0()
0()
1((0 0.005999979438 0))
1((0.005985492136 0 8.326672685e-17))
1((0.005985475194 0 0))
2((0.005985470949 0 0) (0 0.005999913064 0))
1((0.00598549069 0 0))
1((0.005985483051 0 0))
1((0.005985468945 -1.387778781e-17 0))
1((0.005985591199 0 0))
1((0.005985580676 0 0))
2((0.005985567425 0 0) (0 0.005999976695 0))
)


// ************************************************************************* //
