/*--------------------------------*- C++ -*----------------------------------*\
  =========                 |
  \\      /  F ield         | OpenFOAM: The Open Source CFD Toolbox
   \\    /   O peration     | Website:  https://openfoam.org
    \\  /    A nd           | Version:  7
     \\/     M anipulation  |
\*---------------------------------------------------------------------------*/
FoamFile
{
    version     2.0;
    format      ascii;
    class       scalarField;
    location    "2/lagrangian/steelCloud";
    object      dT;
}
// * * * * * * * * * * * * * * * * * * * * * * * * * * * * * * * * * * * * * //


396
(
-3.900178942e-08
8.278924896e-06
4.981637969e-05
8.481323112e-05
8.193143313e-05
8.991286763e-05
6.260955191e-05
6.96146222e-05
1.485229409e-07
-1.815393315e-06
-1.011477467e-05
-5.089480595e-06
1.117518769e-05
1.342139334e-05
1.016732521e-05
5.59158771e-06
8.21880466e-07
-1.337492699e-07
1.523766478e-05
3.777625047e-05
-1.271260452e-05
-1.23238181e-06
-5.561796613e-06
-2.812655481e-06
-7.234328022e-06
4.785704279e-06
-3.696685232e-07
-1.811311574e-05
-5.177243552e-05
-4.839574596e-05
-3.939465406e-07
4.091387191e-06
1.320856341e-06
-3.834122213e-06
-1.477378019e-05
-8.687912278e-07
-2.703967224e-05
2.306057307e-05
1.252972966e-05
2.982228074e-06
1.13844944e-06
7.285404064e-07
-2.218490024e-05
-3.623962017e-06
3.148643699e-05
-1.735637721e-05
-5.196045337e-05
-4.313672742e-05
8.153983593e-06
1.384015286e-05
9.657725147e-06
-4.84164223e-06
-1.432519397e-05
-5.752964719e-06
-2.245545176e-05
5.337037841e-06
-2.626507921e-06
1.263279903e-05
1.33918584e-05
1.190161024e-05
-2.222705291e-05
-3.893056708e-06
-8.018290048e-06
-1.175635131e-05
-4.552251364e-05
-4.050297625e-05
1.844618182e-05
2.342533967e-05
1.969260051e-05
-4.143417764e-06
-1.353086885e-05
-8.825838767e-06
-3.864879904e-05
-5.156281967e-06
-1.539158849e-05
2.181105825e-05
2.412245552e-05
2.229853453e-05
-3.37889755e-05
-1.968481031e-06
-8.542585982e-06
-2.567648389e-05
-4.054264002e-05
-3.503785563e-05
2.555156463e-05
3.297709585e-05
2.740872704e-05
-6.906083141e-06
-1.314792357e-05
-1.23403186e-05
-2.84314975e-05
-2.151418201e-05
-2.610510692e-05
3.652334546e-06
1.215285056e-05
6.186450421e-06
-1.535792939e-05
-2.017770891e-05
-2.491438975e-05
1.29362946e-05
-5.415448914e-08
4.496227735e-05
8.173924684e-05
8.974220358e-05
8.277069664e-05
6.671383917e-05
6.052802673e-05
6.467374586e-05
-1.480779801e-05
-1.675243751e-06
-7.621479439e-06
1.439658074e-05
7.442752496e-06
1.187947311e-05
1.296757595e-05
1.085182562e-05
1.574510275e-05
3.883389174e-05
3.548568779e-05
3.644930653e-06
-9.227838266e-06
-6.041985097e-06
-8.677683702e-06
1.572484136e-06
3.672420828e-06
1.282576363e-06
-5.335485006e-05
-4.905899332e-05
-5.846130033e-05
3.84727473e-06
1.555145989e-06
4.632691378e-06
-1.424848016e-05
-1.535034954e-05
-1.390845237e-05
2.976498927e-05
1.4289135e-05
2.320167735e-05
-2.863649837e-06
3.956635822e-06
-2.627637257e-06
-5.635317329e-06
-6.796163229e-06
-1.114636612e-05
-4.742156728e-05
-4.302814966e-05
-4.138161688e-05
1.579859079e-05
1.259558247e-05
1.404019608e-05
-1.648773232e-05
-1.107366951e-05
-1.552005658e-05
-2.01894894e-06
4.23268788e-07
-8.363240007e-06
9.262481281e-06
1.48946156e-05
1.0208084e-05
-9.334323843e-06
-6.503787214e-06
-1.326424326e-05
-5.423646319e-05
-3.998229767e-05
-5.188804396e-05
2.439534795e-05
2.253233163e-05
2.220153736e-05
-1.575341809e-05
-8.111869945e-06
-1.588051746e-05
-2.858282167e-06
-1.229167973e-05
-7.683618083e-06
1.939163863e-05
2.555197179e-05
1.86583528e-05
-9.715924978e-06
-3.948053324e-06
-1.567428807e-05
-4.75214172e-05
-3.228820931e-05
-4.663053463e-05
3.123218923e-05
3.16884311e-05
2.818470737e-05
-1.592197729e-05
-7.126140786e-06
-1.554233384e-05
-2.601932447e-05
-2.441342806e-05
-2.548428312e-05
7.885220354e-06
1.310029697e-05
5.099423804e-06
-3.208516791e-05
-1.951685071e-05
-4.028491778e-05
7.63950863e-05
7.851441736e-05
8.442950441e-05
4.833823859e-05
6.655827498e-05
6.078192842e-05
7.250095456e-05
7.100867089e-05
7.39720095e-05
1.12445234e-05
4.604351913e-06
8.067257632e-06
8.235807154e-06
6.526808422e-06
8.330381108e-06
9.207409484e-06
8.334716604e-06
5.099686971e-06
-6.185841406e-06
-1.041329125e-05
-7.717405831e-06
-1.28846075e-05
-2.551150524e-06
-2.952144313e-06
-4.133145625e-06
-7.05483531e-06
-6.173178253e-06
-8.712456629e-06
-9.059534986e-06
-1.038322448e-05
-1.418149649e-06
-8.12417246e-06
-6.660537937e-06
-1.099309046e-05
-1.013152716e-05
-1.128904498e-05
-1.293878407e-05
-1.069311148e-05
-1.478025394e-05
-3.217115698e-06
-1.185744955e-06
-2.875292909e-06
-1.4082012e-05
-1.266275075e-05
-1.332080485e-05
-1.171261043e-05
-4.635004054e-06
-1.061412169e-05
-5.281768147e-07
-5.654281436e-06
-4.073582643e-06
-1.424767986e-05
-1.2751679e-05
-1.32513481e-05
-1.2095623e-05
-7.033504721e-06
-1.109594143e-05
-3.650946306e-06
2.898749074e-06
-3.193039681e-07
-1.63046749e-05
-1.170007467e-05
-1.378469713e-05
-1.196158227e-05
-1.975054912e-06
-7.780097145e-06
4.757905805e-06
-4.944884e-07
-6.578297594e-07
-1.379660913e-05
-1.23423389e-05
-1.331453468e-05
-1.164426304e-05
-2.727867176e-06
-8.87410288e-06
1.633356216e-06
7.100961959e-06
3.735095608e-06
-1.646733317e-05
-1.025824734e-05
-1.385712201e-05
-8.259706801e-06
3.042453363e-06
-4.425326915e-06
3.54426716e-06
3.254111929e-06
2.731925812e-06
-1.239895971e-05
-8.087200199e-06
-1.140263742e-05
-3.33176204e-05
-1.785692305e-05
-2.673284068e-05
-4.832644861e-06
-4.872943691e-06
-1.052292048e-05
-3.675960994e-05
-2.571051614e-05
-3.091743229e-05
7.66523779e-05
8.105275688e-05
7.426817939e-05
7.143646843e-05
6.110305557e-05
7.27789658e-05
7.237762261e-05
7.233814486e-05
7.09181989e-05
-1.338061466e-06
2.798488812e-06
3.89877423e-06
7.322552871e-06
1.26618746e-05
8.3815933e-06
2.709209358e-06
3.121463797e-06
3.273017145e-06
-2.211646812e-05
-7.405533727e-06
-1.467485214e-05
2.908954564e-06
-5.831254448e-06
-5.317554764e-06
-8.014281161e-06
-2.478758921e-06
-2.045165999e-06
-4.422690229e-06
-1.159946288e-05
-6.879101284e-06
-1.132905142e-05
-5.641282977e-06
-8.364123428e-06
-7.02908118e-06
-1.028071288e-05
-1.054229403e-05
-4.986774949e-05
-9.151090451e-06
-3.031343627e-05
-1.33479637e-06
-1.571850939e-06
-2.852678924e-06
-1.44622522e-05
-1.199538062e-05
-1.406619273e-05
2.761214909e-05
-8.018401688e-06
1.01180196e-06
-8.910474802e-06
-5.290153251e-06
-6.699832899e-06
-1.203035772e-05
-1.228241234e-05
-1.348473532e-05
-2.923338228e-05
-4.666137286e-06
-3.591668495e-05
-1.180513411e-06
1.687373716e-06
-2.936031867e-06
-1.344757243e-05
-1.262036846e-05
-1.568066716e-05
1.944911312e-05
-5.759036886e-06
2.066403413e-05
-2.995550508e-06
-2.765564855e-07
-2.607343389e-06
-1.257492049e-05
-1.192562431e-05
-1.33434591e-05
-2.227459839e-05
-1.609912062e-06
-2.694690273e-05
2.829517327e-06
6.841587642e-06
4.358488765e-07
-1.301353113e-05
-9.825235629e-06
-1.634585045e-05
1.415388388e-05
-4.311764744e-07
1.474169988e-05
1.954797191e-06
3.666881832e-06
3.378648626e-06
-1.133967157e-05
-9.864207375e-06
-1.092109952e-05
-1.85903445e-05
-1.818765813e-05
-2.420339272e-05
-1.309653521e-05
-4.974851388e-06
-1.52390415e-05
-3.129052253e-05
-2.583413965e-05
-3.504822957e-05
)


// ************************************************************************* //
