/*--------------------------------*- C++ -*----------------------------------*\
  =========                 |
  \\      /  F ield         | OpenFOAM: The Open Source CFD Toolbox
   \\    /   O peration     | Website:  https://openfoam.org
    \\  /    A nd           | Version:  7
     \\/     M anipulation  |
\*---------------------------------------------------------------------------*/
FoamFile
{
    version     2.0;
    format      ascii;
    class       vectorField;
    location    "2/lagrangian/steelCloud";
    object      f;
}
// * * * * * * * * * * * * * * * * * * * * * * * * * * * * * * * * * * * * * //


396
(
(-0.0008699264883 -7.303956548e-06 0.06901231217)
(-0.0006042104611 1.751000621e-05 0.06944883889)
(-0.0009688941163 2.85119947e-05 0.06949010414)
(-0.00081894358 3.067629656e-05 0.0693960849)
(-0.0009949679205 -8.852539954e-05 0.06934296468)
(-0.0009379054998 9.964309579e-05 0.06938970111)
(-0.0009227752869 1.461732439e-05 0.06924152181)
(-0.0009312531167 -7.570551012e-05 0.06925221354)
(-0.000873879043 0.0001549596947 0.06937183832)
(-0.001023285687 -4.012413774e-05 0.06939317241)
(-0.001253211821 3.110691359e-05 0.06930330047)
(-0.001022136463 4.445577675e-05 0.06903055054)
(-0.001036133039 -6.033573044e-05 0.06937886667)
(-0.001350740002 4.254797237e-05 0.06936334608)
(-0.001074438387 3.173514427e-05 0.06910221605)
(-0.001135673024 -5.111411773e-05 0.06930553109)
(-0.00110737204 4.099331413e-05 0.06941496928)
(-0.001366518435 6.484430813e-05 0.06935429488)
(-0.0008747391166 1.351147047e-05 0.0691741674)
(-0.0007112318612 -0.0001048394581 0.06918284715)
(-0.00078646315 1.633815381e-05 0.06914304642)
(-0.001262962791 -6.269998257e-05 0.0691584111)
(-0.001046276936 0.0001050402803 0.06919550517)
(-0.001051820112 -6.124688551e-05 0.06933396949)
(-0.001432270928 -3.121613916e-05 0.06940613044)
(-0.001268572496 8.630115057e-05 0.0692072593)
(-0.001229804155 -7.046844267e-05 0.069331562)
(-0.0008442699978 0.0001152727107 0.06941865899)
(-0.0009987188124 4.845495627e-05 0.06937215238)
(-0.001100333028 6.394805933e-05 0.06930888103)
(-0.001328489438 1.033460532e-05 0.06932158919)
(-0.001215045082 -0.000130078767 0.06935630718)
(-0.001258872075 4.632285937e-05 0.06939256956)
(-0.001502994535 -5.763882031e-05 0.06929798807)
(-0.001280787146 -5.568239806e-05 0.0693739323)
(-0.001240010917 3.709930135e-06 0.06943469055)
(-0.0008974302594 0.0001203605621 0.06947456034)
(-0.001148553136 0.0001158477301 0.0692906839)
(-0.0008181625045 2.942984447e-05 0.06948380137)
(-0.001094901898 -0.0001627384608 0.06936546856)
(-0.0009193358417 -9.974979029e-05 0.06940509267)
(-0.001222319988 -1.376282808e-05 0.06937197768)
(-0.001077836872 2.542030733e-05 0.06935584988)
(-0.0007538267078 -5.308975583e-05 0.06928088908)
(-0.001245327249 8.807260916e-05 0.06929078852)
(-0.0006984196742 8.499503909e-05 0.06954082779)
(-0.001066032514 1.635402998e-05 0.06911539448)
(-0.001181453275 -0.0002360903517 0.06926079322)
(-0.001169361989 5.876232655e-05 0.06938123714)
(-0.001368255149 0.0001284265136 0.06932843824)
(-0.001066611473 -0.0002078056728 0.06934689386)
(-0.001331208233 0.0002053603912 0.06936652863)
(-0.001357123218 0.0003549206122 0.06936136747)
(-0.001176078983 -0.0002440041321 0.06937821944)
(-0.0008742680033 -1.62681647e-05 0.06934096904)
(-0.001108696074 -8.570353884e-05 0.06965396583)
(-0.0004234302798 -5.059319375e-05 0.06939676147)
(-0.000957930856 -4.885918587e-05 0.0693116182)
(-0.0004598696343 -0.0002761485122 0.06973057376)
(-0.0008435026019 -0.0001151083628 0.06959971591)
(-0.0009546770279 0.0003386742819 0.06933694181)
(-0.0005460636326 -0.0005439045162 0.06937438313)
(-0.000666155077 0.0001769229942 0.06916448052)
(-0.0008807000316 6.015501789e-05 0.06938288207)
(-0.001299600281 7.166000113e-05 0.06924745198)
(-0.001361160187 -4.612731804e-05 0.06904756781)
(-0.001183914514 9.637347749e-05 0.06937391226)
(-0.001435566816 0.0001186076793 0.06940810391)
(-0.00148012657 0.000200010109 0.06921420666)
(-0.001594009756 -0.0004575455166 0.06935325776)
(-0.001273326965 0.0001676417684 0.06931034319)
(-0.001664407069 5.42210232e-05 0.06937115983)
(-0.001169874592 0.0002599226669 0.06903927521)
(-0.001196275416 0.0002509674799 0.06946123801)
(-0.000313211091 -0.0001794837114 0.06901756555)
(-0.0008515738919 -0.0002548458358 0.06907933422)
(-0.001417059278 0.0001510206897 0.0696090401)
(-0.0007824094217 -0.0001622453972 0.0699001431)
(-0.0007258861531 -0.0003344141783 0.06909435226)
(-0.001248885712 0.000274712849 0.06880878345)
(-0.0008793730162 -0.0002123458218 0.06905208694)
(-0.0004924679672 -3.795265986e-07 0.06875053125)
(-0.001569474395 5.119680027e-05 0.06916772415)
(-0.001814075566 0.0003900364235 0.06904016552)
(-0.0008468882913 -0.0001349018398 0.06981532796)
(-0.0006241928303 -0.0001827778473 0.06967464797)
(-0.001046866879 0.0004374277571 0.06935712465)
(-0.001468151709 4.092719278e-05 0.06901221966)
(-0.0008865459122 0.0004042276368 0.06930947531)
(-0.001454893784 0.0001402386718 0.0694193477)
(-0.001144388204 0.0002248703976 0.0696906125)
(-0.0002887558056 -0.0001881259997 0.06950981383)
(-0.001112242675 0.0004880964961 0.06948045653)
(-0.001366698913 0.0003833225136 0.06905382784)
(-0.00129883825 -0.0001529383669 0.06925033141)
(-0.0009095197755 -0.0002142334644 0.06887576357)
(-0.002071434825 -0.0002457121923 0.06911227287)
(-2.597124559e-07 -5.545973616e-05 0.06943699731)
(-0.001879413944 0.000427459212 0.06939305509)
(-0.0007524243003 -5.465073543e-05 0.06932106097)
(-0.000838793887 1.392193339e-05 0.06942978365)
(-0.0006858560677 -2.523495542e-05 0.06951123584)
(-0.0009784410577 -5.991695832e-05 0.06954346086)
(-0.001053131161 -9.585456538e-06 0.06937293771)
(-0.001104891916 -1.63856097e-05 0.06938706377)
(-0.0008472379045 -4.741882166e-05 0.06922751779)
(-0.001041471552 -6.978461977e-05 0.06928757858)
(-0.0008535903533 3.26008676e-05 0.06937519955)
(-0.001408222975 -1.554394591e-05 0.06951865918)
(-0.001006234043 -5.493304287e-05 0.06902437084)
(-0.001197121475 -4.050976171e-05 0.06907559694)
(-0.00111059809 -7.362521712e-05 0.06921228803)
(-0.001209177358 -3.861684e-06 0.06924404865)
(-0.001333267501 0.000223651757 0.06905275043)
(-0.001212517591 -8.112817087e-05 0.06929140703)
(-0.001376708079 2.041791391e-05 0.06944539038)
(-0.001373992922 -5.097313785e-07 0.06929414526)
(-0.0006405697923 -5.001435055e-05 0.06921218865)
(-0.0005555206966 -2.282442593e-06 0.06912061525)
(-0.0008407388127 -5.499242954e-05 0.06915373904)
(-0.0009139599919 -1.510017537e-05 0.06913665735)
(-0.001109800433 3.623893885e-05 0.06918059013)
(-0.0009987377858 -0.0001997165005 0.06946321644)
(-0.001167292928 -9.760578857e-05 0.06910042597)
(-0.001549184184 3.149900157e-05 0.06919503834)
(-0.001498639567 2.904055647e-05 0.06944749371)
(-0.0008331305867 0.000109697874 0.06943536396)
(-0.001079300905 -3.182993324e-05 0.06937979666)
(-0.0008638155268 0.0001344975789 0.06929292328)
(-0.0009500222156 4.988663511e-05 0.06919575664)
(-0.0009621798886 4.449315158e-05 0.06927231125)
(-0.001135790882 8.031772071e-05 0.06911520684)
(-0.001069807596 -5.086769728e-05 0.06961206929)
(-0.001076017806 0.0001920893062 0.06938778615)
(-0.0007557535905 -2.086674919e-08 0.06923055436)
(-0.001371413038 0.0001325559078 0.06950414704)
(-0.0007228639184 5.176909089e-05 0.06947320684)
(-0.001277630845 -0.0001460166786 0.06962439835)
(-0.001291257533 -0.0002226513391 0.06941611884)
(-0.00112663576 6.763738783e-05 0.06941821925)
(-0.00101782391 4.195709939e-05 0.06962615463)
(-0.001229657216 -0.0001038869946 0.06919191077)
(-0.0008031371812 -0.000124005774 0.06928680455)
(-0.0008930577661 -6.426341744e-05 0.06897508745)
(-0.0007645533411 -6.591542494e-05 0.06911149548)
(-0.001439950994 -1.189133447e-05 0.06919048808)
(-0.001270505781 0.0001716229186 0.06924076806)
(-0.001332944007 0.0002444329797 0.06934638249)
(-0.001304129717 -6.419610239e-05 0.06928748234)
(-0.001028096202 0.0002368689374 0.06932988499)
(-0.001402964098 0.0002757629436 0.06965338698)
(-0.001105507431 -0.0004674752903 0.06926619668)
(-0.001231233761 0.0003656633498 0.06937441951)
(-0.001417334221 0.0001147593756 0.06949802164)
(-0.0006761688891 -2.798801569e-05 0.06919723664)
(-0.001083179546 -0.0001751399075 0.0694232441)
(-0.001150073597 -2.331052886e-05 0.06936664741)
(-0.0008676070102 0.0002087521673 0.06947565754)
(-0.001016805667 -0.0001016513194 0.06950786089)
(-0.0008764705677 -1.637894069e-05 0.06887493762)
(-0.001018839462 0.0003470374721 0.06934071666)
(-0.001319554546 -0.0001570543582 0.06941548365)
(-0.0006600369971 -0.0001527788312 0.06924976622)
(-0.001365731354 3.158432539e-05 0.06917835641)
(-0.0007733530022 0.0003444969294 0.06932788426)
(-0.001074429785 -0.0002685039752 0.06918549215)
(-0.001300853203 -0.000218396389 0.0692724662)
(-0.001091649869 0.0001156430306 0.06973640593)
(-0.001544249683 -8.524654351e-06 0.06930931792)
(-0.001519463801 -0.0001297977743 0.06951381555)
(-0.001329145676 6.13979309e-06 0.06992496881)
(-0.002038051495 -7.015376892e-05 0.06888281184)
(-0.0007186694743 -1.46990092e-06 0.06952528101)
(-0.001205987649 -0.0001556500938 0.06923437005)
(-0.0008317360959 2.834160757e-05 0.0691116963)
(-0.001057329948 2.497971732e-05 0.06957883261)
(-0.0003287895536 -2.212543162e-05 0.06909720273)
(-0.001285946465 -0.0002121127346 0.06826605307)
(-0.001146012631 -8.747447479e-05 0.06868002855)
(-0.001231476387 -0.0001103214928 0.06819361813)
(-0.001094993669 0.000137721067 0.06884315434)
(-0.002155839376 -0.0001231950426 0.06928753883)
(-0.001735443244 1.051771267e-05 0.06882695342)
(-0.0004513470267 -0.0001828441882 0.06864617372)
(-0.001173242455 -0.000234657577 0.06930144173)
(-0.000818414792 -2.906532351e-05 0.06915506244)
(-0.0009009779623 0.0003368264021 0.07029354165)
(-0.001291804272 -0.000274009066 0.06917055162)
(-0.0006927608454 -0.0003047925797 0.06935525329)
(-0.0007672274327 1.808264223e-05 0.07048883051)
(-0.00130495493 -9.428655351e-05 0.06983029223)
(-0.0009076767628 0.0001945881237 0.07038900759)
(-0.002278613111 1.929985007e-05 0.07048074556)
(-0.001473749289 0.0002698123938 0.06938015586)
(-0.002447997644 -0.0003698571953 0.07006456935)
(-0.0005272215804 -0.0007502039244 0.06854428895)
(0.0009825684784 0.0006143113646 0.06926910569)
(-0.001552434557 0.000207605648 0.06930396115)
(-0.0006923445801 -7.846793834e-06 0.06915166741)
(-0.000972322018 -0.0001193225771 0.0693666682)
(-0.0007750742972 0.0001595071158 0.06948401918)
(-0.0006044818286 1.64003488e-05 0.06911126394)
(-0.0008723290467 -4.177368925e-05 0.06929053479)
(-0.0008096546718 6.333066899e-05 0.0691965597)
(-0.000778450727 1.724197339e-05 0.06945374208)
(-0.0009187435276 -2.312064081e-05 0.06947057395)
(-0.0009717840243 -1.60320029e-05 0.06929401227)
(-0.001148881136 -6.961960166e-05 0.06950419459)
(-0.00118884142 -1.090120143e-05 0.06938466433)
(-0.001083788737 5.683872123e-05 0.06937783914)
(-0.001144890483 -3.200063007e-07 0.06935107641)
(-0.001077175678 -1.940171607e-05 0.06950884812)
(-0.001190739477 4.723622261e-05 0.06924352306)
(-0.001141324095 -6.008340634e-05 0.06931306831)
(-0.00101564839 -1.760346399e-05 0.06922804534)
(-0.00103604753 6.803864047e-05 0.0691369459)
(-0.001006789218 4.00711375e-05 0.06936843761)
(-0.001239555221 1.237162429e-05 0.06955386944)
(-0.00102530841 4.881824065e-05 0.06927050272)
(-0.0008896391342 6.980128754e-05 0.06928821124)
(-0.0007543245226 -2.720360941e-06 0.06907454902)
(-0.001135997502 5.093418038e-05 0.0692556409)
(-0.001269600395 -2.346378615e-05 0.06934485563)
(-0.001304529646 0.0001405154267 0.0693898496)
(-0.001195295002 -7.269605054e-05 0.06923926844)
(-0.00088548249 -6.026120862e-05 0.06935030901)
(-0.0009148781139 -0.0001147391307 0.06932247732)
(-0.0009163129564 6.640508184e-05 0.06933370581)
(-0.001041412433 -9.895506659e-05 0.06941144564)
(-0.0009226069233 -0.0001283626852 0.06930680627)
(-0.0009005955504 -0.0001611631559 0.06967262685)
(-0.001361202416 -2.772760657e-05 0.06940663802)
(-0.001386394751 3.551074643e-05 0.06923673073)
(-0.001090614803 -0.0001633310887 0.06936501268)
(-0.0009786771641 -0.0001457508468 0.0692992101)
(-0.0009193990588 6.376801624e-05 0.06931689938)
(-0.001094561331 0.0001655720811 0.06916364585)
(-0.001277811238 6.91422901e-05 0.06919183754)
(-0.001125470461 6.805029692e-06 0.06932163977)
(-0.001122852376 0.000212760222 0.06921207993)
(-0.001348695466 0.000105656749 0.06922132562)
(-0.001309621187 -8.803221511e-05 0.06908346782)
(-0.001126042764 8.561492258e-05 0.06952886641)
(-0.001040953256 1.979246487e-07 0.06950158018)
(-0.001234687899 0.0002047927999 0.06921398442)
(-0.0009738994542 0.000266971013 0.06922487836)
(-0.0009460506016 0.0001118081821 0.0694922167)
(-0.0009656481036 9.807401522e-06 0.06937765163)
(-0.0009589463758 -5.662922262e-05 0.06920262942)
(-0.00120221793 -0.0001587337127 0.06939777436)
(-0.00128202306 2.511847385e-06 0.06932662553)
(-0.001464888235 -0.0001186925017 0.06932706492)
(-0.001132742895 9.718986611e-05 0.06937398021)
(-0.001104170774 -0.0004465158056 0.06934235517)
(-0.001093235576 3.337284815e-05 0.06947323902)
(-0.001178877417 3.922186526e-05 0.06921711296)
(-0.001457607761 -0.0001821520606 0.06915107411)
(-0.001209888988 0.0001293307027 0.06924822869)
(-0.001209871262 -7.217542691e-05 0.06929221917)
(-0.001343071985 0.0001252073016 0.06916722265)
(-0.001196146626 -4.34907098e-05 0.06904260536)
(-0.001040074948 -0.000516502651 0.06902723226)
(-0.0009185253601 0.0001442578756 0.06915846575)
(-0.0009603783938 -0.0001954747196 0.06921644879)
(-0.001307486882 -0.0001539716314 0.06941142596)
(-0.000509732711 -4.852215456e-05 0.06913084056)
(-0.0009394298924 0.0002613095379 0.06915514979)
(-0.0009612065073 -7.245833337e-05 0.0692711655)
(-0.001094075553 2.445830052e-05 0.0694978792)
(-0.00109561521 0.0004245122879 0.06964102059)
(-0.001538447394 -0.0001751655702 0.0695287185)
(-0.001735191073 -9.031859803e-05 0.06936608067)
(-0.001289067038 -0.000295821566 0.06974452925)
(-0.0009123845871 0.0001533985954 0.0690976604)
(-0.001458193256 7.423301931e-05 0.06956544135)
(-0.001045042023 -0.0002809447343 0.06984417007)
(-0.0009482248488 -8.902981417e-05 0.06934988561)
(-0.0006267233328 -0.0001156574768 0.06912280181)
(-0.0007984536519 -0.0004338836351 0.06897631386)
(-0.0004619392045 8.734696818e-05 0.06929873952)
(-0.001131971253 7.185711651e-05 0.0691511114)
(-0.0008296715225 0.0004626448018 0.06917676531)
(-0.001114032058 -0.0001985631192 0.06966503914)
(-0.0008761565328 -0.000208451924 0.06938826296)
(-0.0005197207668 0.0006248226247 0.06911550446)
(-0.001472114626 -8.294987605e-05 0.06925722275)
(-0.001357862499 8.846747366e-05 0.06967878422)
(-0.001354911534 -7.955504547e-05 0.06968746225)
(-0.001251254705 -0.0001624760404 0.06881114848)
(-0.0008521569211 0.0002309866337 0.0688028201)
(-0.0009664003758 -0.0001128836541 0.06910403571)
(-0.001717726392 -1.7411175e-05 0.06919336817)
(-0.001996648302 0.0003150656848 0.06917509671)
(-0.001638417407 -0.0001553173727 0.06954019652)
(-0.0003404108321 4.412087317e-05 0.06895001137)
(-0.0004177309141 0.0001961158642 0.06866048188)
(-0.0005044282755 0.0005062849501 0.06953556219)
(-0.0009664990808 1.742420332e-05 0.06954105885)
(-0.0009339952005 2.494025661e-05 0.06954349655)
(-0.0008765587447 -0.0001157968881 0.06956776104)
(-0.0008971694152 -4.546144171e-05 0.06904165133)
(-0.0008527512866 -1.283309283e-05 0.06919487311)
(-0.0009360398732 1.62980777e-05 0.06911017446)
(-0.0009253020323 2.432072301e-05 0.06954987603)
(-0.0008908734685 -4.190430205e-06 0.06933726424)
(-0.000909509084 -2.313877802e-05 0.06933420166)
(-0.0009281304689 6.220119534e-06 0.06874085266)
(-0.001156478227 -1.283564171e-05 0.06932355726)
(-0.001185718451 0.0001064364972 0.06882961211)
(-0.001235938729 -1.864562585e-05 0.06956472417)
(-0.0009683180014 -4.977458382e-06 0.0695568507)
(-0.001105193459 2.1599632e-05 0.06974107449)
(-0.001026891914 -2.549922749e-05 0.06906383851)
(-0.000953762054 5.809872231e-06 0.06924709267)
(-0.0008685111768 9.698892388e-06 0.06935622257)
(-0.001010061213 -3.194211687e-05 0.06963237815)
(-0.001128298255 -6.995899477e-05 0.06929153583)
(-0.001125043038 9.03036141e-05 0.06957432191)
(-0.001318992345 -7.659411811e-05 0.06930683431)
(-0.0007613079665 -0.0001194740128 0.06931980019)
(-0.0008016416165 -6.828682724e-05 0.069598586)
(-0.001267834446 0.0001327252966 0.06841697138)
(-0.001443789806 -2.40357483e-05 0.06930632246)
(-0.001288475847 2.654924999e-05 0.06915971357)
(-0.001271921479 2.256177928e-05 0.06930711003)
(-0.0006670587228 7.971226085e-05 0.06930012507)
(-0.0008076060611 -8.903206801e-05 0.06932909257)
(-0.0006951626443 0.0001206004796 0.06978537873)
(-0.001024536011 7.456465047e-05 0.06957392124)
(-0.001173902352 0.0001059246385 0.06942998421)
(-0.001435152088 0.0001604295588 0.07050252753)
(-0.001328439173 3.825216727e-05 0.06946752184)
(-0.0013435117 -4.24542276e-05 0.06963924813)
(-0.0006532800694 -0.000140290569 0.06915701796)
(-0.0004393102557 -3.189721046e-05 0.06931677508)
(-0.001116730662 8.584772692e-05 0.06926350197)
(-0.001080460792 -1.526110026e-05 0.06922336084)
(-0.001351743154 0.0001855320776 0.06927449012)
(-0.001122136207 -4.348406081e-05 0.06908537681)
(-0.001236573343 -0.0001551198249 0.06955343011)
(-0.001361853373 4.988872673e-06 0.06941838594)
(-0.001193841136 -3.097171001e-05 0.06969733597)
(-0.0009283543636 0.0002367346939 0.06941802112)
(-0.0007439290224 -0.0004983455023 0.06925770262)
(-0.0008435334855 0.0002105452598 0.06916034575)
(-0.0008539741606 8.090217999e-05 0.06955650523)
(-0.0007719044799 -0.0001776227346 0.06907386861)
(-0.0009306187311 -0.0001299630227 0.06897968936)
(-0.00127800807 0.0001183331408 0.0687873058)
(-0.00145656003 -0.0001115755024 0.06913714346)
(-0.001363758627 3.238319106e-05 0.06918233347)
(-0.001556564677 1.742905055e-05 0.06942787591)
(-0.001034148586 0.0001279140144 0.06949201598)
(-0.001348656757 -0.0001177546943 0.06953009782)
(-0.001458605459 0.0001931624228 0.06903700949)
(-0.001472341199 -0.0001783204635 0.06944212316)
(-0.001409708512 1.345428241e-05 0.06935249012)
(-0.001297193405 0.0001811708935 0.06887662642)
(-0.00123554323 0.000175569192 0.06885427442)
(-0.00150690587 1.590555341e-06 0.06882606347)
(-0.0008353335019 -0.000184124405 0.06968603839)
(-0.001024620786 0.0001864242755 0.06915024283)
(-0.0008640033882 0.0001462520393 0.06973049933)
(-0.0003418441331 -3.820511634e-05 0.06942188084)
(-0.0008397685565 -1.525825633e-05 0.06896199972)
(-0.0009033777066 -0.0001180942543 0.06969722144)
(-0.001876142416 -8.720232351e-05 0.06991282366)
(-0.001244905171 -3.015666603e-05 0.06948060515)
(-0.001438893115 0.0001039161445 0.06957687252)
(-0.0008284801154 -0.000139031298 0.06938259165)
(-0.001028938412 -0.0001453568847 0.06963664339)
(-0.001563693804 0.000158919775 0.0692893469)
(-0.00128365935 0.0002622958996 0.06932542265)
(-0.001016898132 -3.405869163e-05 0.06949706569)
(-0.001363612601 -0.0001397406908 0.06949011781)
(-0.001492860626 0.0001864136954 0.06868297134)
(-0.0008334522287 7.282228344e-05 0.06889961326)
(-0.0006469903804 -0.0002683028214 0.06913723835)
(-0.001227663511 0.000183134625 0.06941496684)
(-0.001201483491 -0.0001334492743 0.06921473649)
(-0.001527831735 0.0001399749598 0.0694390449)
(-0.001264368525 -8.381019868e-07 0.06927266394)
(-0.001309399759 -0.000287931864 0.06887769037)
(-0.001110086161 -0.0003140136767 0.06902553647)
(-0.0006209851673 -7.353663052e-05 0.0690092872)
(-0.001394518898 -0.0001734937282 0.06964882146)
(-0.00208093006 9.519165342e-05 0.06971432663)
(-0.002404178825 -0.0001987437095 0.06803329809)
(-0.0008701280239 9.76382158e-05 0.0687919307)
(-0.002244575115 -0.000245858114 0.06828295296)
(-0.00217703766 0.000154310998 0.06958166112)
(-0.001711488986 0.0002499303291 0.06981469789)
(-0.001627586436 0.0006080926624 0.06808445587)
(-0.0001258061341 -0.0001774700371 0.07017982724)
(-0.001225230148 5.044784948e-05 0.06998439827)
(-0.0004871671766 -0.0002155956185 0.07008492732)
)


// ************************************************************************* //
