/*--------------------------------*- C++ -*----------------------------------*\
  =========                 |
  \\      /  F ield         | OpenFOAM: The Open Source CFD Toolbox
   \\    /   O peration     | Website:  https://openfoam.org
    \\  /    A nd           | Version:  7
     \\/     M anipulation  |
\*---------------------------------------------------------------------------*/
FoamFile
{
    version     2.0;
    format      ascii;
    class       scalarField;
    location    "2/lagrangian/steelCloud";
    object      neighbourMin;
}
// * * * * * * * * * * * * * * * * * * * * * * * * * * * * * * * * * * * * * //


396
(
337.0556423
337.0556155
337.0556238
337.0556644
337.0556155
337.055603
337.0556223
337.055603
337.055603
337.2466469
337.0556423
337.0556735
337.0556644
337.0556155
337.0556238
337.0556652
337.0556223
337.2462204
337.4065025
337.405161
337.246878
337.2466469
337.2461752
337.2462204
337.2467307
337.2462559
337.4052692
337.4084446
337.4070766
337.4071739
337.4065025
337.405161
337.4052692
337.4067176
337.4053795
337.5325396
337.5382113
337.6326124
337.6329796
337.5347473
337.5323299
337.5325396
337.5351766
337.5327503
337.6329796
337.7158273
337.6375559
337.637925
337.636128
337.6326124
337.6329796
337.6368527
337.6333309
337.6337015
337.7783174
337.772931
337.7737345
337.7158273
337.7113082
337.7118752
337.7169199
337.7123738
337.7129546
337.8272333
337.7803351
337.7811656
337.7783174
337.772931
337.7737345
337.7798083
337.7743935
337.7751946
337.8357314
337.8588701
337.8601929
337.8272333
337.8211431
337.8222004
337.8291445
337.8230032
337.8240639
337.8956149
337.8677775
337.8691443
337.8655036
337.8588701
337.8601929
337.8956149
337.8611315
337.862451
337.9203363
337.9130924
337.9149318
337.8956149
337.8886002
337.8901839
337.9160336
337.8912232
337.8928093
337.0556224
337.0556125
337.0556581
337.0556125
337.0556125
337.0556125
337.0556224
337.0556125
337.0556581
337.0556558
337.2461739
337.0557236
337.0556224
337.0556125
337.0556581
337.0556325
337.0556255
337.055675
337.4052679
337.4051618
337.2473086
337.2462201
337.2461739
337.2466465
337.2463036
337.2462577
337.2467315
337.4071946
337.4070928
337.4084328
337.4052679
337.4051618
337.4065009
337.405485
337.4053787
337.4067189
337.6329784
337.6326135
337.6361266
337.5325402
337.532329
337.5347484
337.5329607
337.5327509
337.5351748
337.6379291
337.6375556
337.6411726
337.6329784
337.6326135
337.6361266
337.6336957
337.6333301
337.636855
337.7181532
337.7729307
337.7222317
337.7118768
337.7113076
337.7158288
337.7129426
337.7123772
337.7169162
337.7811581
337.7803362
337.7858998
337.7737341
337.7729307
337.7783163
337.7751941
337.7743929
337.7798104
337.8601923
337.8588719
337.8655032
337.8222015
337.821143
337.8272345
337.8240607
337.8230054
337.8291418
337.8691479
337.8677778
337.874654
337.8601923
337.8588719
337.8655032
337.8624507
337.8611309
337.8678218
337.9149324
337.9130926
337.9203365
337.8901847
337.8885993
337.8956158
337.892809
337.8912263
337.8983131
337.0556624
337.0556209
337.055603
337.0556624
337.0556209
337.0556209
337.0556624
337.0556209
337.0556305
337.0556815
337.0556336
337.0556434
337.0556624
337.0556209
337.0556305
337.0557095
337.0556629
337.0556727
337.2467636
337.2462801
337.2463362
337.2467588
337.2462756
337.2463309
337.2470264
337.246552
337.2465969
337.4068056
337.4054614
337.4055693
337.4068081
337.4054684
337.405574
337.4075867
337.4062476
337.406354
337.535308
337.532882
337.5330912
337.5353124
337.5328846
337.5330924
337.5367458
337.5343014
337.5345153
337.636998
337.6334706
337.6338358
337.6369776
337.6334493
337.6338166
337.6391036
337.6355434
337.6359134
337.7170454
337.7125046
337.7130695
337.7169667
337.7124214
337.712989
337.719761
337.7151666
337.7157393
337.7798998
337.7744821
337.7752834
337.7797338
337.7743157
337.7751195
337.7831365
337.7776471
337.7784614
337.8291866
337.8230526
337.824107
337.8289043
337.8227697
337.8238304
337.8328451
337.8266147
337.8276899
337.8678182
337.8611269
337.8624486
337.867398
337.8607145
337.8620395
337.8717887
337.8649975
337.8663437
337.8982626
337.8911814
337.8927625
337.8976733
337.8906044
337.8921954
337.902485
337.8952864
337.8969084
337.0556289
337.0556236
337.0556289
337.0556236
337.0556236
337.0556721
337.0556345
337.0556236
337.0556721
337.0556395
337.0556289
337.0556751
337.0556345
337.0556236
337.0556721
337.0556433
337.0556552
337.0556912
337.2463335
337.2462896
337.2467613
337.2463309
337.2462862
337.2467582
337.2466057
337.24656
337.2469971
337.4055668
337.4054631
337.4068031
337.4055751
337.4054669
337.4068095
337.4063544
337.4062486
337.4075921
337.533093
337.5328811
337.5353082
337.5330948
337.5328817
337.5353006
337.5345125
337.5342965
337.5367449
337.7125021
337.6334713
337.6369941
337.6338169
337.633449
337.6369779
337.6359133
337.6355436
337.6391056
337.713086
337.7125021
337.717047
337.7129879
337.7124217
337.7169654
337.7157382
337.7151655
337.7197632
337.8230501
337.7744837
337.8289044
337.7751192
337.7743157
337.7797336
337.7784615
337.7776473
337.7831368
337.824118
337.8230501
337.829201
337.8238303
337.8227702
337.8289044
337.8276907
337.826615
337.8328438
337.8911783
337.8611297
337.8911783
337.8620394
337.8607144
337.8673971
337.8663437
337.8649976
337.8717888
337.8927722
337.8911783
337.8982739
337.8921953
337.8906048
337.8976776
337.896908
337.895284
337.9024845
)


// ************************************************************************* //
