/*--------------------------------*- C++ -*----------------------------------*\
  =========                 |
  \\      /  F ield         | OpenFOAM: The Open Source CFD Toolbox
   \\    /   O peration     | Website:  https://openfoam.org
    \\  /    A nd           | Version:  7
     \\/     M anipulation  |
\*---------------------------------------------------------------------------*/
FoamFile
{
    version     2.0;
    format      ascii;
    class       Cloud<passiveParticle>;
    location    "2/lagrangian/steelCloud";
    object      positions;
}
// * * * * * * * * * * * * * * * * * * * * * * * * * * * * * * * * * * * * * //

396
(
(0.9969247588 0.001538310354 0.0002902156342 0.001246715203) 343 994 1
(0.9945024718 0.002749909074 0.0002898825998 0.002457736529) 346 1003 1
(0.9965720975 0.001715509748 0.0002894319994 0.001422960745) 349 1012 1
(0.9926339051 0.003683552786 0.0003388683246 0.003343673818) 397 1153 1
(0.9926497782 0.003673722422 0.0003402388848 0.003336260477) 400 1162 1
(0.9926425438 0.003677469916 0.0003405681333 0.003339418142) 403 1171 1
(0.9928701503 0.003566424731 0.0003789614828 0.003184463462) 451 1312 1
(0.9926812242 0.003661181282 0.0003781553415 0.003279439154) 454 1321 1
(0.9932969872 0.00335364031 0.0003782995529 0.002971072938) 457 1330 1
(0.9949601601 0.002520909831 0.0002898674939 0.002229062582) 1315 3802 1
(0.994502125 0.002745148119 0.0002949718815 0.002457755022) 1318 3811 1
(0.9965730232 0.001709857331 0.0002945512274 0.001422568235) 1321 3820 1
(0.9926364034 0.00368440348 0.000336132567 0.003343060522) 1369 3961 1
(0.9926521883 0.003677065407 0.0003358919658 0.003334854318) 1372 3970 1
(0.9926453886 0.003681054388 0.0003355132768 0.003338043755) 1375 3979 1
(0.9928714779 0.00356536156 0.0003786927323 0.0031844678) 1423 4120 1
(0.9926829013 0.003652123353 0.0003865683735 0.003278406952) 1426 4129 1
(0.9932968181 0.003345446354 0.0003865267179 0.002971208788) 1429 4138 1
(0.9948157251 0.002593220225 0.0002898718892 0.002301182747) 2287 6610 1
(0.9937418188 0.003130598419 0.0002889792112 0.002838603552) 2290 6619 1
(0.9965740383 0.001715228419 0.0002882919414 0.00142244135) 2293 6628 1
(0.9926408949 0.003681183211 0.0003372127489 0.003340709095) 2341 6769 1
(0.9926567482 0.003673591501 0.000336163087 0.003333497194) 2344 6778 1
(0.9926503195 0.003671293052 0.0003423348806 0.003336052559) 2347 6787 1
(0.9928737484 0.003567306967 0.0003757931065 0.003183151521) 2395 6928 1
(0.9926854208 0.003662367474 0.0003741212925 0.003278090385) 2398 6937 1
(0.9932017973 0.003404663153 0.0003742733965 0.003019266126) 2401 6946 1
(0.9948159707 0.002594644408 0.0002880595561 0.002301325289) 3259 9418 1
(0.9937433166 0.003122934745 0.0002968613853 0.002836887262) 3262 9427 1
(0.9965752988 0.001707511089 0.0002965368243 0.001420653326) 3265 9436 1
(0.9926468663 0.003679836621 0.0003352559789 0.00333804107) 3313 9577 1
(0.9926621336 0.003672846565 0.0003353746323 0.003329645248) 3316 9586 1
(0.9926568189 0.003676337604 0.0003354161079 0.003331427425) 3319 9595 1
(0.9928767638 0.003564747243 0.0003764502814 0.003182038639) 3367 9736 1
(0.9926899449 0.003641903935 0.0003935385193 0.003274612661) 3370 9745 1
(0.9930617413 0.003456847977 0.0003936381043 0.003087772596) 3373 9754 1
(0.9948161373 0.002594496505 0.0002882702991 0.002301095848) 4231 12226 1
(0.9928953828 0.003555861023 0.0002870216701 0.003261734508) 4234 12235 1
(0.9961439474 0.001932692549 0.0002858330391 0.001637526985) 4237 12244 1
(0.9926543443 0.003674784897 0.0003367472623 0.003334123574) 4285 12385 1
(0.9926693708 0.003667687568 0.0003358001749 0.003327141453) 4288 12394 1
(0.9926652035 0.003661392826 0.0003446011217 0.003328802524) 4291 12403 1
(0.9928811107 0.003567178191 0.000372042863 0.003179668261) 4339 12544 1
(0.9926947789 0.003662072037 0.0003697596645 0.00327338944) 4342 12553 1
(0.9927329805 0.003644043021 0.000369079763 0.003253896719) 4345 12562 1
(0.9947253294 0.002639801603 0.0002881544926 0.002346714477) 5203 15034 1
(0.9928979341 0.003546776437 0.0002955718544 0.003259717613) 5206 15043 1
(0.9961454479 0.001923556765 0.0002948641174 0.001636131208) 5209 15052 1
(0.9926631156 0.003672819322 0.0003340351022 0.00333003001) 5257 15193 1
(0.9926767968 0.00366644268 0.0003342349193 0.003322525629) 5260 15202 1
(0.9926743486 0.003668465585 0.0003337276984 0.003323458086) 5263 15211 1
(0.9928843125 0.003562867106 0.0003744272515 0.00317839311) 5311 15352 1
(0.9927015224 0.003631040709 0.0003983869105 0.00326904999) 5314 15361 1
(0.992735181 0.003615437781 0.0003974412931 0.003251939949) 5317 15370 1
(0.9942181907 0.002883836573 0.0002980204088 0.002599952319) 6175 17842 1
(0.9928885489 0.003549431165 0.000296965451 0.003265054502) 6178 17851 1
(0.99515822 0.002415387427 0.0002959613338 0.002130431253) 6181 17860 1
(0.9926730328 0.003665603224 0.0003366141822 0.003324749785) 6229 18001 1
(0.9926861981 0.003659599271 0.0003355833252 0.003318619325) 6232 18010 1
(0.9926849204 0.003653936858 0.0003419143067 0.003319228473) 6235 18019 1
(0.9928889251 0.003567857919 0.0003675004307 0.003175716542) 6283 18160 1
(0.9927083228 0.003660662083 0.000364490383 0.003266524744) 6286 18169 1
(0.9927381291 0.003647566314 0.00036268606 0.003251618497) 6289 18178 1
(0.9939118663 0.003047029425 0.0002870196348 0.002754084681) 7147 20650 1
(0.9928915753 0.003551235879 0.0002945299669 0.003262658892) 7150 20659 1
(0.9951598456 0.002417509061 0.0002938674006 0.002128777924) 7153 20668 1
(0.9926838784 0.003662791986 0.0003328292609 0.003320500357) 7201 20809 1
(0.9926952693 0.003657368632 0.000334337561 0.003313024504) 7204 20818 1
(0.9926957303 0.003657920165 0.0003335239696 0.003312825606) 7207 20827 1
(0.9928915706 0.003559656217 0.0003730805213 0.003175692652) 7255 20968 1
(0.9927172808 0.003616144312 0.0004057089779 0.003260865925) 7258 20977 1
(0.9927418513 0.003605590283 0.0004039481171 0.003248610299) 7261 20986 1
(0.9939128801 0.003035097471 0.0002998144017 0.00275220807) 8119 23458 1
(0.992879812 0.003552584392 0.0002977112194 0.00326989242) 8122 23467 1
(0.9944806235 0.002752892799 0.0002975888278 0.002468894893) 8125 23476 1
(0.9926956977 0.003653398476 0.0003379425148 0.003312961311) 8173 23617 1
(0.9927065229 0.003648658167 0.0003358135287 0.003309005393) 8176 23626 1
(0.9927082192 0.003640585226 0.0003439105083 0.003307285017) 8179 23635 1
(0.9928960958 0.003569740337 0.0003624714774 0.003171692426) 8227 23776 1
(0.9927257832 0.003658661772 0.0003571337936 0.003258421234) 8230 23785 1
(0.9927462425 0.003650475322 0.0003560301581 0.003247252026) 8233 23794 1
(0.9928458664 0.003581158957 0.000285132769 0.003287841849) 9091 26266 1
(0.9928834438 0.00355357808 0.00029647551 0.003266502632) 9094 26275 1
(0.9944818461 0.002755082057 0.0002949383383 0.002468133545) 9097 26284 1
(0.9927084828 0.003654864743 0.0003275389424 0.003309113534) 9145 26425 1
(0.9927174401 0.003651434909 0.0003294595051 0.003301665445) 9148 26434 1
(0.992720708 0.003651223249 0.0003271869436 0.00330088176) 9151 26443 1
(0.9928942569 0.00355706502 0.0003734723921 0.003175205702) 9199 26584 1
(0.9927378358 0.003596063234 0.0004158579778 0.003250243004) 9202 26593 1
(0.9927519339 0.00359179869 0.0004121988908 0.003244068516) 9205 26602 1
(0.9926863443 0.003662506854 0.0002884099513 0.003362738879) 10063 29074 1
(0.9926909752 0.003661099789 0.0002890278391 0.003358897175) 10066 29083 1
(0.9926966098 0.00365930865 0.0002891005741 0.003354980983) 10069 29092 1
(0.9927225117 0.003616384597 0.0003647680636 0.003296335594) 10117 29233 1
(0.9927310258 0.003613900812 0.0003648535834 0.003290219767) 10120 29242 1
(0.9927347355 0.003613317965 0.0003648209453 0.003287125615) 10123 29251 1
(0.9927504865 0.003659283982 0.0003489677886 0.003241261707) 10171 29392 1
(0.9927474615 0.00366750807 0.0003447810049 0.003240249385) 10174 29401 1
(0.9927569949 0.003667234363 0.0003415194361 0.003234251351) 10177 29410 1
(0.9946680022 0.002667825965 0.0002892218268 0.002374950047) 352 1021 1
(0.9953864818 0.002308754762 0.0002890840237 0.002015679367) 355 1030 1
(0.9935859096 0.003206564301 0.0002914950718 0.002916031009) 358 1039 1
(0.9926680928 0.003664537975 0.0003403257865 0.003327043444) 406 1180 1
(0.9926464744 0.003675541903 0.0003403085615 0.003337675126) 409 1189 1
(0.9926548649 0.003671528253 0.0003397641617 0.003333842638) 412 1198 1
(0.992671778 0.003666077035 0.0003780292369 0.003284115693) 460 1339 1
(0.992695336 0.003654058397 0.0003784611083 0.003272144529) 463 1348 1
(0.9926576545 0.003670899649 0.0003800840854 0.003291361771) 466 1357 1
(0.9946682787 0.002662715305 0.0002940864303 0.002374919561) 1324 3829 1
(0.9944604499 0.002767058004 0.0002937690912 0.002478723038) 1327 3838 1
(0.9935864105 0.003204595465 0.0002932408012 0.00291575324) 1330 3847 1
(0.9926705805 0.003668804758 0.0003346793663 0.003325935337) 1378 3988 1
(0.9926494147 0.003679618695 0.0003345814224 0.003336385171) 1381 3997 1
(0.9926572595 0.003675961186 0.0003342251479 0.003332554172) 1384 4006 1
(0.992673197 0.00365763448 0.0003855586181 0.003283609889) 1432 4147 1
(0.992696745 0.003646521679 0.0003851219275 0.003271611436) 1435 4156 1
(0.9926591204 0.003666103851 0.0003842502958 0.003290525477) 1438 4165 1
(0.9940440182 0.002980794768 0.0002878842623 0.002687302808) 2296 6637 1
(0.9939090746 0.003048411078 0.0002877300202 0.002754784306) 2299 6646 1
(0.9935875643 0.003205094447 0.0002917597191 0.002915581526) 2302 6655 1
(0.9926751468 0.003659256188 0.0003415600443 0.00332403701) 2350 6796 1
(0.992654104 0.003670190037 0.0003411369268 0.003334569057) 2353 6805 1
(0.9926615434 0.003666870409 0.0003406553831 0.003330930797) 2356 6814 1
(0.9926763679 0.003667944677 0.000373418697 0.003282268759) 2404 6955 1
(0.9926993904 0.003656625573 0.0003731439239 0.003270840153) 2407 6964 1
(0.9926624566 0.003675402706 0.0003727758634 0.003289364878) 2410 6973 1
(0.9940454218 0.002973226933 0.0002953049528 0.002686046321) 3268 9445 1
(0.9939103893 0.003041338809 0.0002950536567 0.002753218273) 3271 9454 1
(0.9935893746 0.003202560991 0.0002939744608 0.002914089978) 3274 9463 1
(0.9926802148 0.003664935376 0.0003340169563 0.003320832855) 3322 9604 1
(0.9926597084 0.003675499953 0.0003340921555 0.003330699491) 3325 9613 1
(0.9926664968 0.003672270495 0.0003335055906 0.003327727149) 3328 9622 1
(0.9926816723 0.003647933516 0.0003913587107 0.003279035444) 3376 9763 1
(0.9927038846 0.00363842117 0.0003902648962 0.003267429358) 3379 9772 1
(0.9926676707 0.003657652945 0.0003886725371 0.003286003792) 3382 9781 1
(0.9936112754 0.003199999948 0.0002854406095 0.002903284074) 4240 12253 1
(0.9937022627 0.003154829593 0.000284750154 0.002858157597) 4243 12262 1
(0.9933462779 0.003323776191 0.0002935376485 0.003036408278) 4246 12271 1
(0.9926869869 0.003651137312 0.0003441793453 0.003317696438) 4294 12412 1
(0.9926667548 0.003662022669 0.0003429754152 0.003328247103) 4297 12421 1
(0.9926732067 0.00365979921 0.000341658501 0.003325335547) 4300 12430 1
(0.9926876147 0.003667866109 0.0003683388744 0.003276180344) 4348 12571 1
(0.9927084725 0.003643179842 0.0003820062198 0.003266341437) 4351 12580 1
(0.9926738721 0.003661459691 0.0003807041682 0.00328396406) 4354 12589 1
(0.9936148921 0.003189534968 0.0002937289464 0.002901843977) 5212 15061 1
(0.9937037995 0.003145619262 0.0002934445223 0.002857136737) 5215 15070 1
(0.9933490316 0.003323535529 0.0002928883999 0.003034544425) 5218 15079 1
(0.9926932167 0.003659540131 0.000332232116 0.003315011094) 5266 15220 1
(0.9926745902 0.003669344672 0.0003320602392 0.003324004866) 5269 15229 1
(0.992679767 0.003667014273 0.0003317341904 0.003321484507) 5272 15238 1
(0.9926960876 0.003636170067 0.0003950947766 0.003272647602) 5320 15379 1
(0.9927142025 0.00362910159 0.0003935607462 0.003263135159) 5323 15388 1
(0.9926816059 0.00364677337 0.0003920150372 0.003279605728) 5326 15397 1
(0.9936155594 0.003187352937 0.0002958415936 0.002901246071) 6184 17869 1
(0.9936703015 0.003160521587 0.0002947594796 0.002874417461) 6187 17878 1
(0.9933497666 0.00332091934 0.00029482436 0.003034489684) 6190 17887 1
(0.9927019057 0.003646065962 0.0003416694573 0.003310358862) 6238 18028 1
(0.9926840596 0.003655517274 0.0003405295107 0.003319893624) 6241 18037 1
(0.9926884854 0.003654115291 0.0003399224381 0.003317476907) 6244 18046 1
(0.9927046854 0.003666245575 0.0003613116168 0.003267757434) 6292 18187 1
(0.9927199695 0.003659280344 0.0003598346702 0.003260915467) 6295 18196 1
(0.9926903844 0.003675610798 0.0003586515674 0.003275353201) 6298 18205 1
(0.993620604 0.003187640892 0.0002931773379 0.002898577791) 7156 20677 1
(0.9936723218 0.003162382089 0.0002929848139 0.002872311308) 7159 20686 1
(0.993353732 0.003322143915 0.0002925302592 0.003031593856) 7162 20695 1
(0.9927093009 0.003651582918 0.0003326206477 0.003306495528) 7210 20836 1
(0.9926938412 0.003659917714 0.0003325194324 0.003313721607) 7213 20845 1
(0.9926965776 0.003659051318 0.0003320182711 0.003312352793) 7216 20854 1
(0.9927156003 0.003620035543 0.0004019477254 0.003262416449) 7264 20995 1
(0.992727032 0.003616839702 0.0004001832842 0.003255945037) 7267 21004 1
(0.9927009794 0.00363156773 0.0003983701251 0.003269082716) 7270 21013 1
(0.9934893664 0.00324920254 0.0002973061166 0.002964124906) 8128 23485 1
(0.993399388 0.003294867539 0.0002956655079 0.003010078921) 8131 23494 1
(0.9933482019 0.003320760858 0.0002951731579 0.003035864054) 8134 23503 1
(0.9927198111 0.00363544982 0.0003435735093 0.003301165597) 8182 23644 1
(0.9927050546 0.003643422848 0.0003418135228 0.003309709015) 8185 23653 1
(0.9927072357 0.003643404228 0.0003405287659 0.003308831299) 8188 23662 1
(0.9927260224 0.003662995345 0.0003543204794 0.003256661762) 8236 23803 1
(0.9927342367 0.003660151983 0.0003513760749 0.003254235266) 8239 23812 1
(0.9927122965 0.00367354278 0.0003489291864 0.003265231492) 8242 23821 1
(0.9934961563 0.003248319267 0.0002941938286 0.002961330629) 9100 26293 1
(0.993400805 0.003296325435 0.0002944941606 0.003008375443) 9103 26302 1
(0.9933529933 0.003320891304 0.0002946730245 0.003031442353) 9106 26311 1
(0.9927283359 0.003648333292 0.0003258408486 0.003297489991) 9154 26452 1
(0.9927165169 0.003655234927 0.0003254940114 0.003302754117) 9157 26461 1
(0.99271638 0.003655947068 0.0003259097579 0.003301763208) 9160 26470 1
(0.9927392405 0.00360051777 0.000408853621 0.003251388102) 9208 26611 1
(0.9927432565 0.003601827131 0.000406802877 0.003248113489) 9211 26620 1
(0.9927254289 0.003612468198 0.0004058726986 0.003256230211) 9214 26629 1
(0.9926927042 0.003661896526 0.0002869290789 0.003358470213) 10072 29101 1
(0.9926914187 0.00366337905 0.0002869469548 0.003358255333) 10075 29110 1
(0.9926828876 0.003653951055 0.0002959916234 0.003367169768) 10078 29119 1
(0.9927406281 0.003612038924 0.0003615365001 0.003285796512) 10126 29260 1
(0.9927298811 0.003619102902 0.0003606531438 0.003290362899) 10129 29269 1
(0.9927281374 0.003622466247 0.0003527404757 0.003296655856) 10132 29278 1
(0.9927497377 0.003675350722 0.0003361352864 0.003238776305) 10180 29419 1
(0.992751796 0.003678791086 0.0003315910981 0.003237821827) 10183 29428 1
(0.9927388286 0.003690848969 0.0003205273053 0.003249795108) 10186 29437 1
(0.9926431552 0.003678439468 0.0004143634721 0.003264041818) 505 1471 1
(0.992676708 0.003660449928 0.0004150504416 0.00324779159) 508 1480 1
(0.9926645004 0.003666793381 0.0004153407418 0.003253365429) 511 1489 1
(0.9927156605 0.00364279273 0.0004396585102 0.003201888244) 559 1630 1
(0.9926853786 0.003658037008 0.0004390195319 0.003217564889) 562 1639 1
(0.9926950098 0.003653446385 0.000439301267 0.003212242551) 565 1648 1
(0.9927086025 0.00364601286 0.0004563215522 0.003189063061) 613 1789 1
(0.9927248668 0.003637893381 0.0004557109159 0.003181528882) 616 1798 1
(0.9927315693 0.003634420124 0.0004563483479 0.003177662275) 619 1807 1
(0.9926451509 0.003680224543 0.000410893417 0.003263731174) 1477 4279 1
(0.9926788017 0.003664017398 0.0004107021621 0.003246478697) 1480 4288 1
(0.9926669745 0.003670462256 0.0004103757891 0.003252187488) 1483 4297 1
(0.9927163652 0.00364292781 0.0004384442535 0.003202262731) 1531 4438 1
(0.9926869256 0.00365404606 0.0004425088495 0.003216519503) 1534 4447 1
(0.9926960855 0.003649696536 0.0004424386378 0.003211779282) 1537 4456 1
(0.9927104772 0.003645396085 0.0004552124552 0.003188914237) 1585 4597 1
(0.9927267434 0.003637371175 0.0004556513342 0.003180234096) 1588 4606 1
(0.9927336465 0.003633973813 0.0004556906343 0.003176689042) 1591 4615 1
(0.9926491762 0.003675373372 0.0004139643581 0.00326148605) 2449 7087 1
(0.992682206 0.003658892029 0.0004130474906 0.003245854478) 2452 7096 1
(0.9926713957 0.003660089587 0.0004179107498 0.003250603988) 2455 7105 1
(0.9927180127 0.003642490571 0.0004383299395 0.003201166759) 2503 7246 1
(0.9926896077 0.003657139541 0.0004369403599 0.003216312431) 2506 7255 1
(0.9926984484 0.003653027965 0.0004373062488 0.003211217368) 2509 7264 1
(0.992713896 0.00364311625 0.00045608984 0.003186897891) 2557 7405 1
(0.9927299104 0.003635361704 0.0004547744532 0.003179953447) 2560 7414 1
(0.9927369173 0.003631649593 0.0004556894943 0.003175743662) 2563 7423 1
(0.9926545472 0.003678991421 0.0004072002429 0.003259261129) 3421 9895 1
(0.9926863597 0.003663995339 0.0004072368776 0.003242408098) 3424 9904 1
(0.9926770884 0.003669871154 0.0004069732238 0.003246067252) 3427 9913 1
(0.9927194386 0.003641945819 0.0004376919326 0.003200923673) 3475 10054 1
(0.9926933327 0.003649350186 0.0004443007772 0.003213016328) 3478 10063 1
(0.9927018036 0.003645310863 0.0004451288472 0.003207756666) 3481 10072 1
(0.9927188056 0.003641341558 0.0004549130538 0.003184939781) 3529 10213 1
(0.9927342961 0.003633520512 0.0004560632871 0.003176120141) 3532 10222 1
(0.9927413319 0.003629810437 0.0004572418626 0.003171615784) 3535 10231 1
(0.9926615316 0.003655507615 0.000427440261 0.003255520512) 4393 12703 1
(0.9926914655 0.003641567507 0.0004257356841 0.003241231269) 4396 12712 1
(0.9926842285 0.003645749278 0.0004255845418 0.003244437686) 4399 12721 1
(0.9927213633 0.003641600745 0.0004373179822 0.003199717933) 4447 12862 1
(0.9926976501 0.003654063802 0.0004359855751 0.003212300559) 4450 12871 1
(0.9927056744 0.003650395375 0.0004360997731 0.00320783042) 4453 12880 1
(0.9927250269 0.0036384503 0.0004549639673 0.003181558829) 4501 13021 1
(0.9927397997 0.003631224373 0.000453907651 0.003175068234) 4504 13030 1
(0.9927467396 0.003628010649 0.0004542101072 0.003171039614) 4507 13039 1
(0.9926696431 0.003674804831 0.0004036958045 0.003251856216) 5365 15511 1
(0.9926968908 0.003662369467 0.0004033616913 0.003237378043) 5368 15520 1
(0.9926919366 0.003666501932 0.0004019409794 0.003239620519) 5371 15529 1
(0.9927235411 0.003639738312 0.0004377012101 0.003199019365) 5419 15670 1
(0.9927033627 0.003643952596 0.0004444390889 0.003208245575) 5422 15679 1
(0.9927106996 0.003640721033 0.0004442167663 0.003204362624) 5425 15688 1
(0.9927324244 0.003635246675 0.0004540338491 0.003178295099) 5473 15829 1
(0.992746147 0.003623751205 0.0004596629385 0.003170438875) 5476 15838 1
(0.9927529409 0.003620733352 0.0004594419942 0.003166883766) 5479 15847 1
(0.9926792284 0.003642046292 0.0004321131271 0.003246612172) 6337 18319 1
(0.9927036102 0.003631047516 0.0004302621043 0.003235080135) 6340 18328 1
(0.9927005366 0.003633248316 0.0004296273363 0.003236587734) 6343 18337 1
(0.9927260974 0.003640527492 0.0004360876012 0.003197287485) 6391 18478 1
(0.992709295 0.003649805062 0.0004344887205 0.00320641126) 6394 18487 1
(0.992716285 0.003646772325 0.0004340475987 0.003202895055) 6397 18496 1
(0.9927408441 0.003631685154 0.0004539004465 0.003173570264) 6445 18637 1
(0.9927535811 0.003626120527 0.0004521772497 0.003168121156) 6448 18646 1
(0.9927601383 0.003623161988 0.0004519365257 0.003164763232) 6451 18655 1
(0.9926900044 0.003667078565 0.0004002721146 0.003242644892) 7309 21127 1
(0.9927105476 0.00365847933 0.0004008010148 0.003230172019) 7312 21136 1
(0.9927096069 0.003661124354 0.0003985497273 0.003230719057) 7315 21145 1
(0.9927283334 0.003638608002 0.0004355066408 0.003197551933) 7363 21286 1
(0.9927169543 0.003644393509 0.0004376037328 0.003201048487) 7366 21295 1
(0.9927230197 0.003642255693 0.0004366456462 0.003198078958) 7369 21304 1
(0.9927500781 0.00362833815 0.0004511922534 0.00317039154) 7417 21445 1
(0.9927617502 0.003613221431 0.000462926658 0.003162101749) 7420 21454 1
(0.9927680649 0.003610898987 0.0004619473255 0.003159088804) 7423 21463 1
(0.9927018143 0.003620881117 0.0004424240356 0.003234880555) 8281 23935 1
(0.9927187983 0.003614629643 0.0004383723308 0.003228199769) 8284 23944 1
(0.9927198161 0.003615616626 0.0004379625722 0.003226604727) 8287 23953 1
(0.9927316738 0.003638869203 0.0004352699423 0.003194187063) 8335 24094 1
(0.9927242508 0.003643673593 0.0004324722577 0.003199603315) 8338 24103 1
(0.9927301563 0.003640760016 0.0004334560008 0.003195627641) 8341 24112 1
(0.9927601415 0.003622197078 0.0004539349652 0.003163726494) 8389 24253 1
(0.9927708976 0.003618002149 0.0004507505602 0.003160349665) 8392 24262 1
(0.9927767508 0.003615760425 0.0004511268999 0.003156361874) 8395 24271 1
(0.9927142771 0.003662525105 0.0003919088652 0.003231288895) 9253 26743 1
(0.9927270392 0.003658183568 0.0003933807332 0.003221396477) 9256 26752 1
(0.9927298639 0.003659737466 0.000389350416 0.003221048213) 9259 26761 1
(0.9927352145 0.003635789019 0.000434341928 0.003194654552) 9307 26902 1
(0.9927335974 0.003630676799 0.0004436208306 0.003192105017) 9310 26911 1
(0.9927388696 0.003629187723 0.000441408412 0.00319053428) 9313 26920 1
(0.9927707759 0.003622130585 0.0004468468709 0.003160246635) 9361 27061 1
(0.9927799512 0.003617821294 0.0004502359468 0.003151991599) 9364 27070 1
(0.9927857195 0.003615996904 0.0004479823804 0.003150301218) 9367 27079 1
(0.9927290854 0.003598118445 0.0004547403895 0.003218055813) 10225 29551 1
(0.9927383267 0.003596923104 0.0004539498618 0.003210800314) 10228 29560 1
(0.9927421836 0.003597341135 0.0004531741086 0.003207301149) 10231 29569 1
(0.9927375378 0.003639183149 0.000434836767 0.003188442262) 10279 29710 1
(0.9927414548 0.003639283374 0.0004359950892 0.003183266762) 10282 29719 1
(0.9927466629 0.003637766534 0.0004365249077 0.003179045655) 10285 29728 1
(0.9927830937 0.003610690292 0.0004558443735 0.003150371673) 10333 29869 1
(0.992790538 0.003608834253 0.0004572262866 0.003143401484) 10336 29878 1
(0.9927956511 0.003607640237 0.0004576421514 0.003139066499) 10339 29887 1
(0.9939967268 0.003000385662 0.0004152207088 0.002587666822) 514 1498 1
(0.9926708507 0.003663460991 0.0004152152204 0.003250473051) 517 1507 1
(0.9929813315 0.003508315379 0.0004147285241 0.003095624642) 520 1516 1
(0.9926738588 0.003663879283 0.0004391113656 0.003223150568) 568 1657 1
(0.9926869737 0.003657230969 0.0004392513915 0.003216543987) 571 1666 1
(0.9926693838 0.003665870369 0.0004390137618 0.003225732049) 574 1675 1
(0.9927341099 0.003632747577 0.0004564127682 0.003176729795) 622 1816 1
(0.9927238091 0.003637828397 0.0004565203587 0.003181842192) 625 1825 1
(0.9927198246 0.0036398744 0.0004560688737 0.003184232127) 628 1834 1
(0.9939987918 0.003005053805 0.0004093406436 0.002586813752) 1486 4306 1
(0.9926731093 0.003668264348 0.0004091694962 0.003249456834) 1489 4315 1
(0.9929833612 0.003513336775 0.0004088962861 0.003094405731) 1492 4324 1
(0.9926755381 0.003660052187 0.0004419204205 0.003222489303) 1540 4465 1
(0.9926883495 0.003653846784 0.0004418649111 0.003215938766) 1543 4474 1
(0.9926708615 0.00366279109 0.0004416391521 0.003224708225) 1546 4483 1
(0.9927359695 0.003632851332 0.0004552905096 0.003175888685) 1594 4624 1
(0.9927257022 0.003637894959 0.000455485788 0.003180917025) 1597 4633 1
(0.9927217537 0.003638906455 0.0004564748967 0.003182864907) 1600 4642 1
(0.9940017307 0.00299509791 0.0004175736725 0.002585597712) 2458 7114 1
(0.9926766895 0.003658036816 0.0004169647088 0.003248309009) 2461 7123 1
(0.9929864483 0.003503749254 0.0004162821777 0.003093520311) 2464 7132 1
(0.9926786063 0.00366326696 0.00043694837 0.003221178355) 2512 7273 1
(0.992691036 0.003657133607 0.0004365870456 0.003215243377) 2515 7282 1
(0.9926740124 0.003665998884 0.0004361345985 0.003223854093) 2518 7291 1
(0.9927388825 0.003629966708 0.0004561910673 0.00317495975) 2566 7432 1
(0.9927286176 0.0036351186 0.0004560546232 0.003180209162) 2569 7441 1
(0.9927245738 0.003637256565 0.0004557350663 0.003182434553) 2572 7450 1
(0.9940039863 0.003007207054 0.0004050085098 0.002583798163) 3430 9922 1
(0.9926812903 0.00366926859 0.0004047405348 0.00324470053) 3433 9931 1
(0.9929896337 0.003515341469 0.0004040540588 0.003090970818) 3436 9940 1
(0.9926838374 0.003654763907 0.0004435629032 0.003217835802) 3484 10081 1
(0.9926944525 0.003649905876 0.0004434794097 0.003212162255) 3487 10090 1
(0.9926782165 0.003658107495 0.0004429844075 0.003220691645) 3490 10099 1
(0.9927426828 0.003629467676 0.0004560066429 0.00317184287) 3538 10240 1
(0.9927329629 0.003634305377 0.000456216779 0.003176514958) 3541 10249 1
(0.9927286589 0.003635453834 0.0004569181061 0.003178969115) 3544 10258 1
(0.9940072708 0.0029853592 0.000425013681 0.002582356346) 4402 12730 1
(0.9926866172 0.003646865951 0.0004231214839 0.003243395371) 4405 12739 1
(0.9929936106 0.003495077217 0.0004210524893 0.003090259709) 4408 12748 1
(0.9926896409 0.003658660368 0.0004365018913 0.003215196823) 4456 12889 1
(0.9926986817 0.003654554441 0.0004352704508 0.003211493363) 4459 12898 1
(0.992683452 0.00366247247 0.0004346076365 0.003219467848) 4462 12907 1
(0.9927477985 0.003624517723 0.0004577517615 0.003169932038) 4510 13048 1
(0.9927384829 0.003629323537 0.000456879304 0.003175314283) 4513 13057 1
(0.9927339306 0.003631886331 0.0004561726474 0.00317801044) 4516 13066 1
(0.9931592806 0.003433865588 0.0003996914781 0.003007162295) 5374 15538 1
(0.9926926237 0.003668062765 0.0003993046658 0.0032400089) 5377 15547 1
(0.9929955115 0.003516923888 0.000398815472 0.003088749115) 5380 15556 1
(0.9926973707 0.003647854875 0.0004425064432 0.003212267959) 5428 15697 1
(0.9927041619 0.003644881201 0.0004425723182 0.003208384591) 5431 15706 1
(0.9926902884 0.003651771311 0.0004424106878 0.0032155296) 5434 15715 1
(0.9927535516 0.003620970844 0.0004577200984 0.003167757505) 5482 15856 1
(0.992744978 0.003625476938 0.0004579210004 0.00317162409) 5485 15865 1
(0.9927398758 0.003628178618 0.0004576976957 0.00317424788) 5488 15874 1
(0.993161814 0.003404006289 0.0004288784682 0.003005301214) 6346 18346 1
(0.9926993575 0.003636709862 0.0004265374608 0.003237395166) 6349 18355 1
(0.9929988478 0.003489220968 0.000424626875 0.00308730437) 6352 18364 1
(0.9927053427 0.003652509059 0.0004344364579 0.003207711803) 6400 18505 1
(0.9927100042 0.003650347602 0.000433393845 0.003206254321) 6403 18514 1
(0.9926975871 0.003657358554 0.0004329515264 0.003212102792) 6406 18523 1
(0.9927602952 0.003617199703 0.0004582354278 0.003164269698) 6454 18664 1
(0.9927525989 0.003621305748 0.0004572661652 0.003168829175) 6457 18673 1
(0.9927468977 0.003624620195 0.0004570137666 0.003171468355) 6460 18682 1
(0.9930410062 0.003497054718 0.0003961977459 0.003065741315) 7318 21154 1
(0.9927072372 0.003665563521 0.000395353846 0.003231845413) 7321 21163 1
(0.9929117707 0.003563174393 0.0003953574212 0.003129697471) 7324 21172 1
(0.9927149714 0.003647176555 0.0004349989781 0.003202853075) 7372 21313 1
(0.9927171411 0.003646914775 0.000434970827 0.003200973292) 7375 21322 1
(0.9927064093 0.003642286912 0.0004448407731 0.003206463022) 7378 21331 1
(0.992767702 0.003612030131 0.0004605458414 0.003159722062) 7426 21472 1
(0.9927609377 0.003615960361 0.0004605127058 0.003162589203) 7429 21481 1
(0.9927547149 0.003619166164 0.0004604530445 0.0031656659) 7432 21490 1
(0.9930444288 0.003455689563 0.000436420828 0.003063460808) 8290 23962 1
(0.992716251 0.003622149143 0.0004321657368 0.003229434128) 8293 23971 1
(0.9929157671 0.003525694189 0.0004288622072 0.003129676483) 8296 23980 1
(0.9927242016 0.003641981656 0.0004362244836 0.00319759228) 8344 24121 1
(0.9927245169 0.003641786776 0.0004341726875 0.003199523615) 8347 24130 1
(0.9927150063 0.003647476101 0.0004333497822 0.003204167844) 8350 24139 1
(0.9927762931 0.003605690166 0.0004622531687 0.003155763605) 8398 24280 1
(0.9927701531 0.003609281801 0.0004598371473 0.003160727923) 8401 24289 1
(0.9927638626 0.003613594235 0.0004586430911 0.003163900103) 8404 24298 1
(0.9927405394 0.003656237942 0.0003863578587 0.003216864787) 9262 26770 1
(0.9927255108 0.003665503036 0.0003860686056 0.003222917537) 9265 26779 1
(0.9927293263 0.003663535742 0.00038685696 0.003220281009) 9268 26788 1
(0.992735205 0.003632152188 0.000438748502 0.003193894302) 9316 26929 1
(0.9927334921 0.003634208115 0.0004393564317 0.003192943372) 9319 26938 1
(0.9927249885 0.00363075336 0.0004476926085 0.00319656557) 9322 26947 1
(0.9927854843 0.003617733188 0.0004450038078 0.003151778697) 9370 27088 1
(0.9927795572 0.003621796102 0.0004455246785 0.003153121998) 9373 27097 1
(0.9927729168 0.003608401098 0.0004630176791 0.003155664449) 9376 27106 1
(0.992746068 0.003598323322 0.0004491266008 0.003206482117) 10234 29578 1
(0.992737597 0.003605371463 0.0004463743233 0.00321065723) 10237 29587 1
(0.9927354746 0.00361052884 0.0004363911521 0.003217605451) 10240 29596 1
(0.9927453451 0.003639450225 0.0004348041814 0.003180400477) 10288 29737 1
(0.9927415253 0.003642513639 0.0004333236697 0.003182637377) 10291 29746 1
(0.9927344724 0.003647970912 0.0004255854204 0.003191971275) 10294 29755 1
(0.9927955995 0.003593041357 0.0004716101868 0.003139748983) 10342 29896 1
(0.9927903382 0.00359707747 0.0004698837359 0.003142700624) 10345 29905 1
(0.9927837123 0.003602317517 0.0004621382729 0.00315183188) 10348 29914 1
)


// ************************************************************************* //
