/*--------------------------------*- C++ -*----------------------------------*\
  =========                 |
  \\      /  F ield         | OpenFOAM: The Open Source CFD Toolbox
   \\    /   O peration     | Website:  https://openfoam.org
    \\  /    A nd           | Version:  7
     \\/     M anipulation  |
\*---------------------------------------------------------------------------*/
FoamFile
{
    version     2.0;
    format      ascii;
    class       scalarField;
    location    "2/lagrangian/steelCloud";
    object      ppT4sum;
}
// * * * * * * * * * * * * * * * * * * * * * * * * * * * * * * * * * * * * * //


396
(
2.581287979e+10
5.165506716e+10
5.165506796e+10
3.874860384e+10
5.165495499e+10
5.16549625e+10
5.165505246e+10
6.456140356e+10
3.871930887e+10
1.293571865e+10
2.584208448e+10
5.173821512e+10
6.467390306e+10
7.760926746e+10
7.760922746e+10
5.173819231e+10
6.467349927e+10
5.174264887e+10
3.890112355e+10
5.186111087e+10
6.479670682e+10
6.479660881e+10
6.479595492e+10
6.47958353e+10
6.479643641e+10
7.775588898e+10
5.184038757e+10
3.893688941e+10
3.892011718e+10
5.190029244e+10
6.489600219e+10
7.787450942e+10
7.787427624e+10
5.191602817e+10
6.48942392e+10
5.1918735e+10
3.897188918e+10
5.199536698e+10
5.199496176e+10
6.497491178e+10
6.497329109e+10
6.497303967e+10
6.497450764e+10
7.796809764e+10
6.498808615e+10
1.300785414e+10
3.901116844e+10
5.201943582e+10
6.503708489e+10
7.804223588e+10
7.804189907e+10
5.202930127e+10
6.503394011e+10
7.804161523e+10
2.60352802e+10
5.207859354e+10
5.207802718e+10
6.50859027e+10
6.508340541e+10
6.508320082e+10
6.508543683e+10
7.809996176e+10
7.809962743e+10
2.605736661e+10
3.906741416e+10
5.209306732e+10
6.512416109e+10
7.814557527e+10
7.814529614e+10
5.209935613e+10
6.512014282e+10
7.814516946e+10
3.908854807e+10
5.212965665e+10
5.21290554e+10
6.515413594e+10
6.515104708e+10
6.515104955e+10
5.211779387e+10
7.818117975e+10
7.818096457e+10
1.30355759e+10
3.910194611e+10
5.213831947e+10
6.51778473e+10
7.820931036e+10
7.8209214e+10
2.607156039e+10
6.51735107e+10
7.82093851e+10
2.607907921e+10
3.911909361e+10
3.911822718e+10
5.215454589e+10
6.519085682e+10
6.519056169e+10
3.911795797e+10
6.519075153e+10
6.519043233e+10
5.16550684e+10
2.581287392e+10
2.584226079e+10
5.16549638e+10
6.456139434e+10
5.165504611e+10
5.165497456e+10
5.165496545e+10
3.87486155e+10
5.171359593e+10
3.880721969e+10
5.173847652e+10
7.760922653e+10
7.760926905e+10
6.467390062e+10
7.760919108e+10
7.760923288e+10
6.467385255e+10
5.186095145e+10
3.890055281e+10
3.887658916e+10
7.775589536e+10
7.775602936e+10
6.479660741e+10
7.77557556e+10
7.775589021e+10
6.479643549e+10
5.190029547e+10
5.190062605e+10
3.892066471e+10
7.787427447e+10
7.787450945e+10
6.489599752e+10
7.78740471e+10
7.787428144e+10
6.489569967e+10
5.199496204e+10
3.899901693e+10
2.600442001e+10
7.796807818e+10
7.796838488e+10
6.497491789e+10
6.497263679e+10
6.497289315e+10
6.497450584e+10
6.503735804e+10
5.202001033e+10
5.203098592e+10
7.804189777e+10
7.804223701e+10
6.503708415e+10
7.804161945e+10
7.804195944e+10
6.503662503e+10
6.508624048e+10
5.207859285e+10
5.207045634e+10
7.809985428e+10
7.810018329e+10
6.508590379e+10
7.809962366e+10
7.809996306e+10
6.508543405e+10
5.209306693e+10
5.209374909e+10
3.906904314e+10
7.814529481e+10
7.814557633e+10
6.512415823e+10
7.814517206e+10
7.814546288e+10
6.512373433e+10
5.212905419e+10
5.212965984e+10
3.909924973e+10
7.81809573e+10
7.818115734e+10
6.515413903e+10
7.818096298e+10
7.818118192e+10
6.515378447e+10
5.213832129e+10
5.213898456e+10
3.910383691e+10
7.820921307e+10
7.820931196e+10
6.517784582e+10
7.820938685e+10
7.820950235e+10
6.517760566e+10
3.911822707e+10
2.60782553e+10
1.303939123e+10
6.519056138e+10
6.519085671e+10
5.215454474e+10
6.519043325e+10
6.519075024e+10
5.215395072e+10
3.874861956e+10
5.165497081e+10
5.165497646e+10
3.874862855e+10
5.165497633e+10
6.456142334e+10
2.584221816e+10
3.874858188e+10
3.874858874e+10
6.467388284e+10
7.760926717e+10
7.760922612e+10
5.173826401e+10
6.467357501e+10
7.760926991e+10
5.173831733e+10
6.467381409e+10
6.467376898e+10
6.479650767e+10
6.479585542e+10
6.479573802e+10
6.479664182e+10
7.775610749e+10
7.77559752e+10
5.183659457e+10
5.183614567e+10
3.887577279e+10
6.489582171e+10
7.787442169e+10
7.787418673e+10
5.191636873e+10
6.489459377e+10
7.787442332e+10
3.89365311e+10
3.89354038e+10
5.191545079e+10
6.497467713e+10
7.796828846e+10
7.796797566e+10
6.497501208e+10
7.796861386e+10
7.796830329e+10
5.19799449e+10
6.497441225e+10
5.197849552e+10
6.503683618e+10
7.804218613e+10
7.804184577e+10
5.202991508e+10
6.503454608e+10
7.804223103e+10
3.902229462e+10
5.202804058e+10
6.503606271e+10
6.508568056e+10
7.810021712e+10
7.809987765e+10
6.508613791e+10
7.8100637e+10
7.810030183e+10
5.206943666e+10
6.508528572e+10
5.206731068e+10
6.512400365e+10
7.814573366e+10
7.814544399e+10
6.512448384e+10
7.814615882e+10
7.814586944e+10
3.907541154e+10
5.209766874e+10
6.512309705e+10
6.515407626e+10
7.818146593e+10
7.818124729e+10
6.51545557e+10
7.818186535e+10
6.515125945e+10
5.212460237e+10
6.515360676e+10
5.212212005e+10
6.517790425e+10
7.82097861e+10
7.820967295e+10
5.214356293e+10
6.517424871e+10
7.821003539e+10
5.214385682e+10
6.517745481e+10
6.517708808e+10
5.215427342e+10
6.519104512e+10
6.519072966e+10
5.215486417e+10
6.51914995e+10
6.519119216e+10
3.911574492e+10
5.215433585e+10
3.911404186e+10
5.165498044e+10
6.456141583e+10
5.165505837e+10
6.456141804e+10
5.165497666e+10
3.874862466e+10
3.874858952e+10
3.874857901e+10
2.584221516e+10
7.760922734e+10
7.760926783e+10
6.467388296e+10
7.760927324e+10
7.760931362e+10
6.467392419e+10
5.173805909e+10
3.880232682e+10
3.880261118e+10
7.775584134e+10
7.775597457e+10
6.479650803e+10
7.775597485e+10
7.775610947e+10
6.479664015e+10
5.183599721e+10
6.479638636e+10
5.183659031e+10
7.787418299e+10
7.7874422e+10
6.489581847e+10
7.787442255e+10
7.787465593e+10
6.489605975e+10
6.489536012e+10
5.191534524e+10
3.893653045e+10
6.496054847e+10
7.796828461e+10
6.497467793e+10
7.796830085e+10
7.796861368e+10
6.497500974e+10
5.1978495e+10
6.497441158e+10
5.197994518e+10
6.504661303e+10
7.804218985e+10
6.503683286e+10
7.804223364e+10
6.503454529e+10
5.20299157e+10
6.503606252e+10
6.503650107e+10
5.203004697e+10
6.507533699e+10
7.810021336e+10
5.206035331e+10
7.810030036e+10
7.810063734e+10
6.508613622e+10
5.206731063e+10
6.508528566e+10
5.206943682e+10
6.51284236e+10
6.512040841e+10
3.908189155e+10
7.81458713e+10
6.512087391e+10
5.210014728e+10
6.512309697e+10
6.512356107e+10
5.210034308e+10
6.514611452e+10
7.818146295e+10
5.211809497e+10
6.515125852e+10
7.818186577e+10
6.515455525e+10
5.212212011e+10
6.515360644e+10
5.212460197e+10
6.517921268e+10
7.820979023e+10
5.214661775e+10
7.821003681e+10
6.51742479e+10
5.214356289e+10
6.517708777e+10
5.21408187e+10
3.910833209e+10
6.519073026e+10
6.519104551e+10
5.215427216e+10
6.519119266e+10
6.519149782e+10
5.215486499e+10
3.911404171e+10
5.215433535e+10
3.911574326e+10
)


// ************************************************************************* //
