/*--------------------------------*- C++ -*----------------------------------*\
  =========                 |
  \\      /  F ield         | OpenFOAM: The Open Source CFD Toolbox
   \\    /   O peration     | Website:  https://openfoam.org
    \\  /    A nd           | Version:  7
     \\/     M anipulation  |
\*---------------------------------------------------------------------------*/
FoamFile
{
    version     2.0;
    format      ascii;
    class       scalarField;
    location    "2/lagrangian/steelCloud";
    object      T;
}
// * * * * * * * * * * * * * * * * * * * * * * * * * * * * * * * * * * * * * //


396
(
337.0552092
337.0551748
337.0552061
337.055197
337.055148
337.0551563
337.0551978
337.0551548
337.0551356
337.2469418
337.2464544
337.2465035
337.2462722
337.2458003
337.2458455
337.2463561
337.2458811
337.2459268
337.408149
337.4067803
337.4068776
337.4062059
337.4048638
337.404972
337.4064211
337.4050824
337.405186
337.5379794
337.5354931
337.5357028
337.5345136
337.532095
337.5323048
337.5349432
337.5325156
337.5327314
337.6409578
337.6373729
337.6377422
337.6359443
337.6324269
337.6327943
337.6366693
337.6331458
337.6335166
337.7220887
337.7174229
337.7180027
337.7156831
337.7111618
337.711729
337.7167762
337.7122279
337.712809
337.7857878
337.780223
337.7810539
337.7782043
337.7728152
337.7736191
337.779696
337.7742784
337.7750799
337.8356471
337.8293227
337.8304152
337.8271446
337.8210513
337.8221092
337.8290568
337.8229124
337.8239737
337.8745774
337.8677092
337.8690767
337.8654342
337.8587973
337.8601208
337.8677491
337.8610598
337.86238
337.9050556
337.8977832
337.899425
337.8955606
337.8885423
337.8901268
337.8982602
337.8911666
337.8927536
337.9296745
337.9222183
337.9241249
337.9202944
337.9130468
337.9148872
337.9233235
337.9159895
337.9178327
337.0551884
337.0551659
337.0552562
337.0551549
337.055145
337.0551906
337.0551651
337.0551581
337.0552076
337.246499
337.2464659
337.2469343
337.2458453
337.2457991
337.2462719
337.2459289
337.2458829
337.246357
337.4068984
337.4067965
337.4081372
337.4049707
337.4048645
337.4062043
337.4051879
337.4050816
337.4064224
337.5357004
337.5354891
337.5379548
337.5323054
337.5320941
337.5345147
337.5327262
337.5325162
337.5349413
337.6377463
337.6373726
337.6409914
337.6327931
337.6324281
337.6359429
337.6335108
337.633145
337.6366717
337.7180101
337.7174229
337.7220907
337.7117306
337.7111611
337.7156846
337.7127969
337.7122312
337.7167725
337.7810464
337.7802241
337.7857904
337.7736187
337.7728149
337.7782032
337.7750794
337.7742779
337.779698
337.8304121
337.8293235
337.8356327
337.8221103
337.8210513
337.8271458
337.8239704
337.8229146
337.8290541
337.8690803
337.8677095
337.8745891
337.8601201
337.8587991
337.8654338
337.8623797
337.8610593
337.8677535
337.8994211
337.8977867
337.9050472
337.8901277
337.8885414
337.8955615
337.8927532
337.8911698
337.8982602
337.9241248
337.922217
337.9296747
337.9148878
337.913047
337.9202946
337.9178303
337.9159904
337.9233148
337.0552141
337.0551662
337.0551759
337.0551949
337.0551534
337.055163
337.0552422
337.0551955
337.0552053
337.2463891
337.2459053
337.2459614
337.2463842
337.2459008
337.2459561
337.246652
337.2461773
337.2462222
337.4065092
337.4051642
337.4052722
337.4065116
337.4051713
337.4052769
337.4072906
337.4059509
337.4060574
337.5350746
337.5326474
337.5328567
337.5350789
337.53265
337.5328579
337.5365131
337.5340674
337.5342815
337.6368147
337.6332856
337.633651
337.6367943
337.6332642
337.6336318
337.6389213
337.6353594
337.6357296
337.7169018
337.7123587
337.7129238
337.716823
337.7122755
337.7128434
337.7196187
337.715022
337.715595
337.7797874
337.774367
337.7751688
337.7796213
337.7742006
337.7750048
337.7830257
337.7775337
337.7783483
337.8290989
337.8229619
337.8240167
337.8288165
337.8226788
337.82374
337.8327592
337.8265257
337.8276014
337.8677499
337.8610552
337.8623776
337.8673295
337.8606427
337.8619683
337.8717224
337.8649278
337.8662746
337.8982096
337.8911248
337.8927067
337.8976201
337.8905476
337.8921393
337.9024342
337.8952319
337.8968547
337.9232014
337.9158802
337.9177207
337.9224269
337.9151166
337.9169659
337.9277312
337.9202778
337.9221644
337.0551721
337.0551615
337.0552077
337.055167
337.0551561
337.0552047
337.0551759
337.0551878
337.0552238
337.2459587
337.2459148
337.2463868
337.2459561
337.2459114
337.2463836
337.246231
337.2461853
337.2466226
337.4052698
337.4051659
337.4065066
337.4052781
337.4051698
337.4065131
337.4060578
337.4059519
337.4072961
337.5328585
337.5326465
337.5350748
337.5328603
337.5326471
337.5350672
337.5342787
337.5340626
337.5365122
337.6336345
337.6332863
337.6368108
337.633632
337.6332639
337.6367946
337.6357295
337.6353596
337.6389233
337.7129404
337.7123562
337.7169034
337.7128423
337.7122758
337.7168217
337.715594
337.715021
337.7196209
337.7751601
337.7743686
337.7797774
337.7750045
337.7742005
337.7796212
337.7783484
337.7775338
337.7830261
337.8240278
337.8229593
337.8291133
337.8237399
337.8226793
337.8288166
337.8276022
337.826526
337.832758
337.8623719
337.861058
337.8677426
337.8619682
337.8606425
337.8673286
337.8662747
337.8649279
337.8717225
337.8927164
337.8911217
337.8982209
337.8921392
337.8905479
337.8976243
337.8968543
337.8952295
337.9024337
337.9177232
337.9158797
337.9232034
337.9169654
337.915117
337.9224168
337.9221645
337.9202777
337.9277299
)


// ************************************************************************* //
