/*--------------------------------*- C++ -*----------------------------------*\
  =========                 |
  \\      /  F ield         | OpenFOAM: The Open Source CFD Toolbox
   \\    /   O peration     | Website:  https://openfoam.org
    \\  /    A nd           | Version:  7
     \\/     M anipulation  |
\*---------------------------------------------------------------------------*/
FoamFile
{
    version     2.0;
    format      ascii;
    class       vectorField;
    location    "2/lagrangian/steelCloud";
    object      torque;
}
// * * * * * * * * * * * * * * * * * * * * * * * * * * * * * * * * * * * * * //


396
(
(-4.926916245e-08 -3.144500872e-07 -1.701617863e-07)
(7.076155203e-08 5.83273649e-07 -1.33537955e-07)
(-2.620413983e-07 -4.463438898e-08 1.948816152e-08)
(-2.793182865e-08 -6.59526995e-07 2.324956616e-07)
(-9.813694885e-08 -1.285167047e-06 -5.493510231e-08)
(-9.707342759e-08 -5.337919821e-08 2.105574907e-07)
(1.497408769e-09 -4.372182252e-07 1.18835836e-07)
(2.77391927e-08 1.749779945e-06 3.608641376e-08)
(-5.631940359e-08 1.593900847e-07 1.107988136e-08)
(-2.326746582e-08 -1.256426301e-06 -1.193987783e-09)
(-8.444744701e-08 -1.834727132e-08 3.306221241e-11)
(-2.738339606e-07 -1.210714525e-07 9.24219818e-08)
(-2.487530171e-07 -1.228150704e-07 2.970408756e-07)
(-3.979618408e-08 2.978503337e-07 4.48022843e-07)
(-2.471042737e-07 4.402638043e-08 3.547725258e-07)
(3.400295543e-07 -8.252282444e-07 -1.364674706e-07)
(-8.001043238e-08 5.536746691e-07 -2.500305793e-07)
(-3.183592249e-08 -3.0007299e-07 -1.123127278e-07)
(2.059009547e-07 -7.00478869e-07 -2.270018601e-07)
(4.716349288e-08 -5.571173399e-07 3.415488667e-07)
(1.323174341e-07 -3.927846703e-07 6.794285312e-08)
(9.933713405e-09 -1.327515922e-07 4.699954501e-07)
(-2.947613806e-07 -5.734632202e-08 3.869639915e-07)
(-1.094746757e-07 -1.033437688e-07 6.845332556e-08)
(-1.110516938e-07 -1.287359282e-07 -1.235932407e-08)
(-1.378412571e-07 -4.489947238e-07 -8.220294413e-07)
(-4.245077409e-07 4.254727608e-07 -1.629723882e-07)
(-6.955778761e-07 -5.33460284e-07 -5.27598711e-08)
(3.820593818e-07 4.861779315e-07 2.476382457e-07)
(2.293931204e-07 -7.075240868e-07 7.633774059e-08)
(4.647918878e-07 -6.871371921e-07 1.546877455e-07)
(9.86477181e-08 -9.92948236e-07 2.48469457e-07)
(-5.183008612e-08 1.086105456e-07 1.372420242e-07)
(-3.244157501e-09 7.074420036e-07 -2.592867321e-07)
(7.84284929e-08 5.971487541e-07 1.0002657e-06)
(-3.518991785e-07 2.836081122e-07 2.091040232e-07)
(1.359145172e-07 -1.156635589e-06 -5.550034963e-07)
(8.73222519e-08 -1.893518078e-07 -2.322373874e-07)
(4.200813398e-08 -4.065305141e-07 3.081568774e-07)
(-3.54777785e-07 7.536369623e-07 -6.118314767e-07)
(2.503809746e-07 7.308055962e-07 -4.66615379e-07)
(2.554784402e-07 -2.962225131e-07 7.007035602e-07)
(-7.251403584e-07 -2.476767917e-08 -4.890766929e-07)
(-2.123335248e-07 -4.974276896e-07 -9.997783541e-07)
(-1.419764783e-07 -2.523276303e-07 -6.308870242e-07)
(-1.393295938e-06 -5.797100039e-07 6.08518291e-08)
(-6.77323313e-07 1.157545837e-06 3.245298993e-07)
(8.926856492e-07 5.859191198e-07 8.18548601e-07)
(4.645846786e-07 -4.460533338e-07 -3.953641083e-07)
(-7.569629472e-08 -1.286225704e-06 2.158017755e-07)
(-3.610672298e-07 -3.021074701e-07 4.869717958e-07)
(-1.09226956e-07 1.240582591e-07 7.470815259e-07)
(2.666190884e-07 1.049422437e-06 7.5052281e-07)
(-3.451216543e-07 1.532627603e-06 -1.087732301e-06)
(-1.668486732e-08 -5.906168989e-07 3.211955253e-07)
(7.797234057e-07 -2.299492297e-07 2.445309318e-07)
(4.987848403e-07 1.99133674e-07 -6.734488982e-07)
(-5.382600835e-07 4.082770409e-07 1.822302038e-07)
(4.483424439e-07 9.171610511e-07 4.828229009e-07)
(8.413760204e-08 2.813937531e-07 -1.350940979e-06)
(-5.096568906e-07 -6.887396588e-07 5.239539494e-07)
(1.07840193e-07 -8.550589013e-07 1.264010795e-06)
(-8.01808334e-08 -4.582512244e-07 -1.168647138e-06)
(-2.452311111e-07 6.347080208e-07 -2.676262794e-07)
(1.326497985e-07 8.057734703e-07 -9.397627588e-08)
(7.780855548e-08 3.206323974e-08 -1.070329212e-07)
(-2.137184218e-07 -1.375008153e-06 6.707518821e-08)
(-9.53562621e-10 -8.370680605e-07 -4.97031183e-07)
(-4.105009335e-07 -3.27874438e-07 5.928813744e-07)
(1.108473211e-06 9.682922649e-07 -5.139888094e-07)
(-3.847530432e-07 8.233627015e-07 8.322758222e-07)
(5.239746257e-07 4.811449177e-07 2.681726073e-06)
(1.250308958e-07 1.411735058e-07 5.23622419e-07)
(5.544433237e-07 -3.322861689e-07 4.487048504e-07)
(-1.598754354e-07 7.747244199e-07 3.29838875e-07)
(-5.805097105e-07 1.003752015e-06 -4.295782397e-07)
(-1.536246958e-06 -2.636366486e-07 9.854999864e-08)
(-1.193196659e-08 -1.309312718e-06 -6.549552158e-07)
(3.004525693e-07 -8.571162254e-07 -2.535475957e-07)
(9.832441494e-07 -4.736856521e-08 6.420333629e-07)
(-2.552194457e-08 1.356354217e-07 5.3529518e-07)
(-5.965631257e-07 -6.693801843e-07 4.448171826e-08)
(-1.626204872e-07 4.93296478e-07 -4.421206612e-07)
(-8.443219125e-07 6.79258231e-07 9.828642259e-07)
(3.374658287e-07 -6.46985889e-07 9.582829957e-08)
(-5.434745243e-08 1.534399559e-06 -5.862081252e-07)
(4.183881404e-07 1.252998275e-06 3.054469903e-07)
(-1.559805322e-06 -1.337782377e-06 3.923799387e-07)
(-5.498437205e-07 -1.67241738e-06 2.602382799e-07)
(1.876838375e-07 -9.745208683e-07 -7.58739982e-07)
(-1.046404402e-06 -2.13472033e-06 -1.275175931e-06)
(-8.285507124e-08 -3.650863932e-07 -1.454962312e-06)
(7.942009539e-08 9.380178276e-07 -1.118481371e-06)
(7.056197144e-07 2.623887303e-06 7.612173977e-07)
(2.860277919e-07 -2.030774737e-06 -2.567976214e-07)
(1.586546878e-07 -1.825523528e-06 -4.813881318e-07)
(7.511615664e-07 -9.44733559e-07 9.571059426e-06)
(-1.098703503e-07 5.267042963e-07 7.459310346e-06)
(-1.099990379e-06 9.997651491e-07 1.557713974e-06)
(-5.911588712e-08 3.707095755e-07 -1.054389626e-07)
(5.381028086e-08 -3.453202055e-07 -3.3881205e-08)
(-1.689853398e-07 1.249116676e-06 1.446815723e-08)
(-7.674107514e-08 -7.058789384e-07 2.566280585e-07)
(1.479791337e-07 -8.698059233e-07 -3.590081548e-07)
(1.245312042e-07 -6.148233717e-07 3.334442095e-07)
(1.004812269e-07 1.332870489e-06 1.617615733e-07)
(-1.165900382e-07 1.286904631e-06 -3.367439453e-07)
(1.349591821e-07 1.047890294e-06 3.839687691e-08)
(-4.245564764e-07 -1.057181755e-06 -1.175349272e-07)
(-7.097891513e-07 -6.743463968e-07 8.704433922e-08)
(-1.000747478e-08 -9.158384462e-07 9.02011581e-08)
(-5.796104413e-09 8.43965867e-07 -1.443808092e-08)
(1.526315901e-07 -2.692764459e-07 4.089366915e-08)
(-2.871097246e-07 1.801449826e-06 4.626902951e-07)
(1.116677887e-07 4.257634831e-07 3.698733725e-08)
(4.094137153e-07 5.244629351e-08 -1.130261784e-06)
(8.394735825e-08 -1.129328333e-06 -1.38344422e-07)
(-1.780615015e-07 -5.104020923e-07 -1.540633246e-07)
(1.109036237e-07 -6.5464899e-07 2.424528444e-07)
(4.649047873e-08 -2.030650579e-07 -2.620819675e-07)
(-1.744401335e-07 -4.20330773e-07 -5.200100056e-07)
(-1.379089627e-07 -5.152027853e-07 5.245452943e-07)
(6.140741545e-08 1.123906311e-06 -2.328870345e-07)
(1.99462717e-07 1.86326652e-06 -1.44301746e-07)
(1.088139321e-07 -8.123271988e-07 1.069519518e-06)
(-4.714348284e-07 -7.318705361e-07 2.657987652e-07)
(8.204561175e-08 1.698478574e-06 -5.733555691e-07)
(3.813583605e-07 3.955745148e-07 -1.174122942e-08)
(4.940216467e-07 1.497195325e-06 2.70356397e-07)
(-1.657278453e-07 -9.993087487e-07 1.589715887e-07)
(-2.909610272e-07 -2.005259218e-07 -7.090691967e-07)
(4.271304447e-07 -6.42612547e-07 -4.612357609e-07)
(-1.114868081e-07 7.949956899e-07 1.221273075e-06)
(-5.077563861e-08 1.148335948e-06 -4.75965683e-07)
(-1.381009559e-08 1.698558894e-06 3.629905408e-07)
(5.400383889e-07 1.046173131e-06 -1.441553574e-07)
(-2.134358447e-07 -7.815694883e-08 2.793025697e-07)
(3.874714323e-07 5.676992801e-08 -1.498593017e-07)
(3.404155017e-07 -3.064783687e-07 5.340096377e-07)
(-1.191323249e-07 4.387051639e-07 1.138188379e-06)
(8.180119847e-09 -6.51742273e-07 -8.943792826e-08)
(-4.092660326e-07 -6.182631164e-08 -1.224702285e-06)
(9.141562861e-07 -7.4479512e-07 -7.714133239e-07)
(4.946117977e-07 1.088774469e-06 -2.066930266e-06)
(1.538056813e-07 9.013175267e-07 -2.745050437e-07)
(2.222952404e-07 1.150993589e-06 -1.092320463e-07)
(4.586891725e-07 -9.572650166e-07 -8.80962843e-08)
(9.682640541e-08 -1.257953207e-06 -7.940933918e-07)
(8.711161762e-07 -3.170212078e-07 2.140822908e-07)
(-4.56575074e-07 6.703207925e-07 -1.428540955e-07)
(4.882896484e-07 3.85913912e-07 3.848453362e-07)
(6.549092035e-07 5.668567564e-07 -2.170225185e-07)
(-3.433153513e-07 -6.686676467e-07 1.133901346e-06)
(-1.144545961e-07 2.450375725e-07 6.146409695e-07)
(2.761495415e-07 -7.358218589e-07 3.044540832e-09)
(1.587369135e-08 -1.121481143e-06 3.940568197e-07)
(1.633840064e-07 1.563652617e-06 -1.622656091e-07)
(-1.105155855e-07 5.196758955e-07 -4.352129144e-07)
(4.788152788e-07 9.894613149e-07 -6.713294778e-07)
(4.705091901e-09 -2.448747167e-06 9.911751298e-08)
(-2.542473111e-07 -1.133784552e-06 -1.852353967e-06)
(1.429473394e-07 -1.997338876e-06 8.129430175e-07)
(-9.515650622e-08 -7.184625259e-07 2.601339767e-08)
(-3.920432862e-07 1.417875828e-06 -7.59549385e-07)
(6.558393122e-07 4.950283248e-07 8.818186081e-07)
(-2.278928446e-07 -9.696922238e-07 7.282988851e-07)
(5.951148627e-07 -7.30557336e-07 4.629124686e-07)
(-5.981908629e-07 -1.646944297e-06 3.152633193e-07)
(1.893650857e-07 1.078761054e-06 -2.106699773e-07)
(-5.22060528e-07 5.086330474e-07 1.978991054e-06)
(6.688652547e-07 2.392906067e-06 -8.522583273e-07)
(1.045958241e-06 2.487074223e-06 -4.518481e-07)
(5.898939587e-07 5.314433668e-07 -8.372062397e-07)
(-1.034843153e-06 1.708780307e-06 2.455704519e-07)
(1.591195638e-07 2.756934106e-06 3.90312626e-07)
(7.521237544e-07 -1.182356144e-06 9.051224096e-07)
(9.438900537e-07 -5.220268985e-07 -3.634537022e-08)
(9.053075871e-08 2.441948592e-06 -1.620593345e-06)
(6.69555842e-07 -6.630090094e-07 -6.503139209e-07)
(3.503210756e-07 2.04341458e-06 1.062729944e-06)
(-3.212229104e-08 4.32667078e-06 1.602310609e-07)
(2.509418241e-07 2.177995588e-06 -1.509109336e-07)
(-3.680571578e-07 1.477790539e-06 9.793380831e-07)
(-3.937586347e-07 8.289897311e-06 8.10122833e-07)
(-9.92330102e-08 2.352152876e-06 1.483593248e-06)
(-4.061428555e-07 1.076366057e-06 -3.952663639e-09)
(7.693331918e-07 -3.865013725e-06 4.017389547e-06)
(6.39333186e-07 -3.271697606e-06 -1.879736162e-06)
(-3.682389205e-08 -3.025466727e-06 -2.076302967e-06)
(-2.013013899e-07 -2.07520207e-06 5.380125311e-07)
(-1.999866208e-06 -7.495220786e-07 7.627460677e-07)
(1.356123132e-06 -6.061228727e-06 -1.090741942e-07)
(1.239591561e-06 8.252074796e-06 -9.299441509e-07)
(7.803201558e-07 -1.489340902e-06 -1.14514442e-07)
(-1.87640342e-07 3.781465526e-06 9.281753596e-07)
(9.426389553e-07 -4.424739116e-06 1.792794179e-06)
(-1.239358078e-07 9.926425167e-07 -1.174659725e-05)
(-1.04870566e-06 1.783073044e-07 -8.753724757e-06)
(-5.700240218e-08 -5.602116681e-08 -4.826423856e-08)
(1.295629993e-07 -9.686473883e-07 1.771920056e-07)
(2.764519359e-08 -3.002148259e-07 1.595056973e-07)
(1.121585484e-08 7.667139986e-08 1.006942434e-07)
(-1.935418291e-07 1.565682868e-06 -1.947171e-07)
(4.051623912e-08 6.942080799e-07 -3.125964234e-07)
(5.415579584e-08 -6.454910857e-08 -5.459459981e-08)
(-2.406985559e-07 -1.747438809e-06 8.954314461e-08)
(1.364650432e-07 -9.786200258e-07 -2.327607856e-07)
(-8.386521876e-08 -3.813920595e-07 2.020863576e-07)
(-1.256842386e-07 9.016844163e-08 -2.109652671e-07)
(3.39882037e-07 1.245260114e-07 1.921915781e-07)
(8.518919447e-08 2.31300785e-07 -5.746297511e-07)
(9.839660895e-08 -1.401854546e-06 1.509854114e-07)
(-2.230775812e-07 1.493872669e-08 -2.180506625e-07)
(-9.025039094e-08 1.201175426e-07 -1.642789684e-07)
(-1.543481207e-07 -5.053998862e-07 1.518421409e-07)
(-1.254110328e-08 6.958387656e-07 -7.760194886e-08)
(-2.64326157e-07 8.608417684e-07 4.662734259e-07)
(-1.703553616e-07 9.624234657e-07 -7.492048119e-07)
(-2.971741347e-07 -2.723774885e-07 4.834591329e-07)
(2.351804652e-08 -4.215329931e-07 3.318981682e-07)
(-9.850670402e-08 -2.127572896e-06 4.285390721e-07)
(4.667221166e-07 -5.543894232e-07 -8.650512849e-08)
(1.583476829e-07 -5.689821072e-07 -2.210139551e-07)
(1.707928971e-07 -1.076939941e-06 -2.781871931e-07)
(-6.081183897e-08 -1.191020828e-07 -4.399046433e-08)
(-6.457413338e-07 4.103351412e-07 -9.436399445e-07)
(-5.934721617e-08 -1.389572628e-07 -1.538616645e-07)
(-2.277002123e-08 1.342886626e-07 -7.144298427e-07)
(-1.300809022e-07 -5.964380988e-07 4.046943279e-07)
(-2.805289312e-07 6.870514411e-07 3.27813006e-07)
(2.762616195e-08 4.041684658e-07 -5.247524451e-07)
(-5.319375187e-08 -3.875963578e-07 7.067780786e-08)
(1.045380736e-07 -2.920948686e-07 -1.938716982e-07)
(8.132249314e-08 -4.506130925e-08 1.555242011e-07)
(2.147964529e-07 -6.590954973e-07 -7.339910815e-07)
(7.896513166e-08 5.611412209e-07 -7.265189042e-08)
(-8.163435653e-08 7.506410451e-07 -7.653289847e-07)
(1.743813361e-08 4.060191615e-08 2.64293366e-08)
(4.81097596e-07 -1.54962927e-06 -3.277275377e-07)
(-2.195312042e-07 -7.092768786e-07 7.131158047e-07)
(-3.19824641e-07 -3.673282276e-08 5.612773878e-08)
(2.254585119e-07 8.655317907e-07 -4.213120164e-07)
(1.440292543e-07 1.013168977e-06 3.215396855e-07)
(-1.715080138e-08 8.284421052e-07 1.798528211e-07)
(1.890157816e-07 -1.64674694e-07 -4.316796081e-07)
(2.824243887e-07 -7.300747467e-07 1.035516407e-06)
(6.637945913e-07 -6.165551299e-07 -3.729514704e-07)
(3.233494353e-07 1.174227981e-06 2.688377986e-07)
(3.268801676e-07 1.012161909e-06 7.46047908e-07)
(-2.819407087e-07 -1.676119185e-07 -2.828660579e-07)
(2.268848168e-07 -1.073298895e-06 -3.833070163e-07)
(-3.435729993e-07 -9.39442484e-07 -1.735499441e-07)
(3.407390744e-07 -2.309299276e-07 1.152337493e-06)
(-9.646367764e-07 -9.610280522e-07 3.606380212e-07)
(-2.959909992e-07 8.575836322e-07 -1.756504495e-07)
(6.049144736e-07 8.293119184e-07 -2.370669267e-07)
(2.032511138e-07 -4.328787197e-07 -1.296895845e-07)
(2.986495101e-07 -1.173632894e-06 -1.192886557e-06)
(-2.644115889e-07 -4.550789974e-07 8.768424456e-07)
(-3.893359869e-08 1.397915114e-06 -7.342402577e-09)
(1.522390072e-07 -8.348056209e-08 3.986858358e-07)
(-3.113043768e-07 -2.555531622e-07 -4.217764582e-08)
(4.329065524e-07 9.578239927e-07 5.237849006e-07)
(-1.549394578e-07 1.603498109e-07 -5.246068432e-07)
(-6.742764318e-07 -2.54994143e-07 8.607676062e-08)
(-1.929878425e-07 -1.188823166e-06 -4.893153701e-07)
(-6.504157763e-07 -4.138287216e-07 8.684736798e-07)
(6.635977437e-07 7.851781489e-07 -4.835300372e-07)
(7.063514677e-08 6.547581261e-07 -2.413821725e-07)
(8.19125433e-07 4.151191224e-07 6.02212143e-07)
(-7.955613004e-07 -4.467706115e-07 1.487090862e-06)
(2.631913855e-07 1.100698126e-07 -1.311601531e-06)
(2.935828624e-07 7.041798432e-07 5.825553309e-07)
(-2.114022093e-07 1.297868553e-06 1.27951174e-06)
(2.894446312e-08 4.520176351e-07 2.880252212e-07)
(5.39044807e-07 -4.205568051e-08 1.594883938e-06)
(-1.373286294e-07 -1.665936627e-06 -1.719745902e-07)
(4.955492107e-07 1.358977941e-06 5.986370312e-07)
(-1.828283067e-07 -7.627986273e-07 -5.884584545e-07)
(-1.965671403e-06 5.485373842e-07 3.368294457e-06)
(9.49431756e-07 -4.235135726e-07 4.101818664e-07)
(-1.591886055e-09 -2.789215697e-08 9.581907345e-07)
(-3.116354205e-07 1.434938154e-07 5.860991616e-08)
(-1.424784838e-07 7.976776915e-07 -1.203805101e-06)
(-7.977935913e-07 8.958168799e-07 9.965939189e-08)
(2.147058781e-07 1.476961075e-06 -1.820401388e-07)
(-7.348820495e-07 -5.103623865e-07 -1.207059288e-07)
(1.523153618e-07 -2.972799852e-07 -7.869085051e-07)
(6.436319888e-08 3.030526729e-07 -2.137859037e-07)
(-7.528152431e-07 1.896583032e-06 -1.574862704e-07)
(-4.688031727e-07 1.897596687e-06 -7.814244624e-07)
(-7.25452026e-07 -1.122190027e-06 1.253529593e-06)
(2.510057618e-07 -2.1132801e-06 -1.31508902e-06)
(-4.941723829e-07 -2.884583988e-06 -1.581737911e-06)
(-6.177164577e-07 -2.264915195e-06 3.289982099e-07)
(2.040116351e-06 2.662183329e-08 1.3674424e-06)
(-1.912201569e-07 -3.047806597e-07 3.2112154e-07)
(-2.40961392e-08 -1.9606179e-06 -3.597595808e-07)
(-9.555539043e-09 -9.563379109e-07 1.210078073e-07)
(-1.298615931e-07 -1.135008546e-06 -3.080396636e-07)
(-2.085327065e-07 2.161489187e-06 7.873543353e-08)
(-3.323766063e-09 1.133963389e-06 -1.295312324e-07)
(-2.116383356e-07 1.613682887e-06 1.801577791e-07)
(7.109700089e-08 -1.935570847e-06 7.468616144e-08)
(-1.002296658e-08 -1.492667294e-06 7.675287737e-08)
(-4.649591479e-08 -1.743684662e-06 -6.069892278e-08)
(3.220884351e-07 2.568440526e-06 -3.852259626e-07)
(-2.10142559e-07 2.461773986e-07 4.383832993e-07)
(3.536897573e-07 9.32947839e-07 -7.687486661e-07)
(1.452498442e-07 2.453525665e-07 2.563857119e-07)
(-9.205331631e-08 1.47607974e-07 -5.47763524e-07)
(1.824343012e-07 -9.24274764e-07 8.688460817e-07)
(-7.541931634e-08 1.726180183e-06 3.680826966e-08)
(-1.572282507e-07 5.065201846e-07 3.304731959e-07)
(1.640821089e-07 1.756397779e-06 -2.38669702e-07)
(-8.347576661e-08 1.013784395e-06 -6.339132995e-07)
(6.212420626e-08 1.666379732e-06 1.397206805e-07)
(-4.197155129e-08 5.359097867e-07 3.223906582e-07)
(1.010621735e-08 1.198208755e-06 -3.738591884e-08)
(-1.020524035e-07 -7.67372515e-07 -6.351082195e-08)
(-2.688259226e-09 -1.963381771e-06 -3.855567555e-07)
(4.640401339e-07 4.484891246e-06 2.446681707e-07)
(4.049581417e-07 -8.112042378e-07 8.195501732e-08)
(-2.835211959e-07 -1.282262551e-06 4.010362748e-08)
(-3.850783874e-07 -1.564093532e-06 -1.050585672e-06)
(1.492715265e-07 -1.226049369e-06 -1.039856898e-06)
(-7.298294197e-08 -2.562046283e-06 1.015604343e-06)
(-5.518808363e-07 2.446845823e-06 -7.344547043e-07)
(1.029407504e-07 5.860181809e-07 6.627850649e-07)
(1.264597875e-07 1.446211743e-06 -3.539295551e-07)
(2.759415013e-09 1.100877809e-06 7.275540065e-07)
(2.811093347e-07 -1.099367667e-06 -2.922671783e-07)
(1.756352351e-07 -1.396035241e-06 -1.539000908e-08)
(-5.509207957e-08 1.710425772e-06 1.627371732e-09)
(-2.837114401e-07 -7.196729172e-08 -2.149496694e-07)
(5.708683355e-07 -9.293523039e-08 -9.74150405e-07)
(-1.174049383e-07 -2.978750253e-06 -1.913595486e-07)
(1.830802148e-07 -4.855949382e-07 7.089026162e-09)
(-1.06639873e-07 -4.471464181e-07 1.501611803e-06)
(-2.100240962e-07 8.312787454e-07 4.396918595e-07)
(1.524211901e-07 4.621403931e-07 -3.882901704e-08)
(-6.278332442e-07 3.508660001e-07 -4.542152637e-07)
(2.005910485e-07 -1.281683108e-07 -5.359400464e-08)
(-6.318190768e-07 8.371275645e-07 2.304480072e-07)
(1.150921213e-06 4.875590434e-07 5.536324717e-07)
(1.097882623e-07 3.875514846e-07 3.020676161e-07)
(-3.934759453e-07 -6.741701874e-07 -5.080839372e-07)
(1.583907834e-07 -2.27352292e-07 -1.041288249e-06)
(3.856756185e-08 -8.870198449e-07 -6.2553637e-07)
(3.367011675e-07 -6.09325348e-08 -5.113748823e-07)
(-5.738070044e-07 6.190586173e-07 7.338707284e-07)
(4.135166088e-07 1.112668131e-06 -7.132005575e-07)
(1.212425719e-06 4.346715295e-07 -1.886019692e-06)
(-8.8260149e-07 2.320216339e-06 -1.078403298e-06)
(-2.275683753e-07 -1.381486887e-06 2.264907347e-07)
(-3.582819081e-07 -1.063114464e-06 4.00485157e-07)
(-3.929156982e-08 -2.298846052e-06 -1.731555114e-06)
(-3.517255502e-07 -1.697373305e-06 6.202374997e-07)
(-5.984371151e-07 4.312736967e-07 1.457057234e-07)
(9.575031426e-07 8.872100347e-07 1.088012005e-06)
(-4.336433128e-07 -3.586770604e-07 -1.366793192e-06)
(-5.422742027e-07 -2.0278318e-07 9.418101934e-07)
(-2.863904912e-07 -8.863583144e-07 -1.418674547e-06)
(2.690691799e-07 3.643991481e-07 6.021836595e-09)
(3.089140972e-07 4.378755226e-07 -2.866928654e-07)
(-2.988351089e-08 4.096731912e-07 4.416535388e-07)
(-3.615406584e-07 -9.245150324e-07 -4.712108556e-07)
(-7.623791934e-08 3.232622601e-07 9.965223969e-08)
(1.210509145e-06 -8.655416496e-07 6.227457726e-07)
(-2.912143809e-07 3.413682418e-06 -2.287868988e-07)
(4.567961744e-07 3.80195464e-07 -2.629750253e-06)
(2.522641172e-06 1.44644058e-06 1.378922915e-06)
(7.017883036e-07 6.591668875e-07 -1.270550546e-06)
(6.702133572e-07 -3.143306719e-07 -5.696892265e-07)
(1.403526397e-06 -1.896458889e-06 9.249493215e-07)
(-2.682454735e-07 5.769552248e-07 -9.140035259e-07)
(-1.987380067e-07 1.073242705e-06 6.335752584e-07)
(-4.202167742e-08 1.135838218e-07 -9.007081608e-07)
(-1.007000298e-06 6.63187979e-06 -2.42398852e-07)
(-4.834018262e-07 1.023458792e-06 7.248519655e-07)
(8.005638267e-07 1.82452759e-07 -9.293981052e-07)
(3.230383506e-07 -3.606038385e-07 -9.655720267e-07)
(2.502568343e-06 6.944886021e-07 -2.34951365e-06)
(-3.08271136e-07 1.7807445e-07 -4.629727104e-07)
(-8.270995484e-07 -1.973316736e-07 3.945812471e-07)
(-1.05822505e-06 -1.372132584e-07 1.48543468e-07)
(1.692494655e-07 -6.695124826e-07 -1.804922279e-06)
(-6.260058214e-07 5.851106064e-06 -8.996945904e-07)
(-5.674953421e-07 2.053583763e-06 2.447019184e-07)
(3.032245632e-06 5.416396601e-09 5.513415093e-06)
(6.099098856e-07 -1.660450919e-06 -3.480679981e-07)
(-1.017240506e-06 -3.371621022e-06 -3.016775439e-06)
(1.357626241e-06 -2.463529137e-06 -2.084397044e-06)
(8.328039613e-07 1.303391106e-06 -9.560827802e-07)
(-1.924984428e-06 -1.610328794e-06 -5.866437816e-07)
(-5.287937446e-07 -1.717650682e-06 9.969122568e-08)
)


// ************************************************************************* //
