/*--------------------------------*- C++ -*----------------------------------*\
  =========                 |
  \\      /  F ield         | OpenFOAM: The Open Source CFD Toolbox
   \\    /   O peration     | Website:  https://openfoam.org
    \\  /    A nd           | Version:  7
     \\/     M anipulation  |
\*---------------------------------------------------------------------------*/
FoamFile
{
    version     2.0;
    format      ascii;
    class       vectorField;
    location    "2/lagrangian/steelCloud";
    object      U;
}
// * * * * * * * * * * * * * * * * * * * * * * * * * * * * * * * * * * * * * //


396
(
(2.174253225e-06 5.369551713e-08 -2.905811495e-05)
(4.420752116e-06 1.4306246e-06 -2.599182822e-05)
(1.895615924e-06 -1.729570734e-07 -2.582477448e-05)
(2.691739731e-06 3.807700601e-07 -2.789187866e-05)
(4.954368406e-06 7.406898717e-08 -2.608854868e-05)
(5.504138845e-06 -5.427261347e-07 -2.746102392e-05)
(2.942708451e-06 2.574687116e-06 -2.827323507e-05)
(5.554748632e-06 -2.033803388e-06 -2.652319864e-05)
(1.030147635e-07 -1.529554316e-07 -2.726077253e-05)
(8.907107968e-07 -1.174396339e-06 -2.746423703e-05)
(-1.742998476e-06 1.303862684e-06 -2.943138306e-05)
(-6.338955206e-07 -5.650093066e-07 -2.706884832e-05)
(1.859074641e-06 4.860964418e-07 -2.87451091e-05)
(3.099817017e-06 5.704380393e-07 -2.941033388e-05)
(-6.353526217e-07 -7.103793491e-07 -2.702568942e-05)
(4.136547279e-06 1.148761907e-06 -2.748448503e-05)
(5.80118868e-07 -2.854999325e-07 -2.994122716e-05)
(3.194826616e-09 -6.661053038e-07 -2.897580135e-05)
(-1.669199132e-06 -1.655952936e-06 -2.616582549e-05)
(-1.587622618e-07 -4.706764959e-07 -2.902017446e-05)
(-1.83244613e-06 -7.940716395e-07 -2.764702221e-05)
(-3.054919713e-06 -1.226644942e-06 -2.619957497e-05)
(-2.675323379e-06 -1.614303906e-06 -2.829917217e-05)
(-3.918000514e-06 5.29801174e-07 -2.701184802e-05)
(-2.294940914e-06 3.626204444e-07 -2.615408765e-05)
(-1.864822053e-06 -9.209404994e-07 -2.594504523e-05)
(1.320701908e-06 8.803245408e-07 -2.601539898e-05)
(-4.483535668e-06 -2.016840407e-06 -2.657211297e-05)
(-3.522234533e-06 -6.696989874e-07 -2.571434759e-05)
(-4.236402532e-06 -1.26528626e-06 -2.567653599e-05)
(-7.088557047e-06 -1.236823254e-07 -2.608604271e-05)
(-7.339630444e-06 -8.407092581e-07 -2.50391297e-05)
(-6.030925344e-06 -1.145681105e-07 -2.418902951e-05)
(-7.358376999e-06 4.684786942e-07 -2.567852999e-05)
(-5.699482559e-06 2.468224927e-07 -2.45749881e-05)
(-7.627505176e-06 1.608177424e-06 -2.339745444e-05)
(-2.567384981e-06 1.943671034e-06 -2.609063456e-05)
(-1.895551773e-06 -1.366835754e-06 -2.960383868e-05)
(-2.009178572e-07 -2.652528728e-07 -3.051918975e-05)
(-6.880006907e-06 7.848207034e-07 -2.695880691e-05)
(-6.594206549e-06 1.506068104e-06 -2.843615444e-05)
(-5.027153328e-06 -2.929151026e-06 -2.869865369e-05)
(-7.356837159e-06 -1.138066415e-06 -2.76990556e-05)
(-4.844741106e-06 2.049194572e-06 -2.680252782e-05)
(-4.478055153e-06 -6.579579028e-06 -2.799367077e-05)
(-5.297479248e-06 -6.975278411e-07 -2.70276902e-05)
(-8.099276556e-07 7.091529598e-07 -2.665897762e-05)
(-1.644522774e-06 -1.104458174e-06 -2.903780562e-05)
(-4.644667712e-06 6.838153479e-08 -2.803345704e-05)
(-5.4191828e-06 -1.080007446e-06 -2.657074182e-05)
(-3.514186361e-06 6.292649415e-07 -2.878533623e-05)
(-2.737909663e-07 1.858855692e-06 -2.723597518e-05)
(-4.013537078e-06 -2.399575325e-06 -2.711059655e-05)
(1.1283568e-06 1.910541256e-06 -2.675006335e-05)
(3.321744119e-06 -1.099875232e-06 -2.618258082e-05)
(3.781945103e-06 -2.130594773e-07 -2.900412336e-05)
(2.135576848e-06 1.164166616e-06 -3.149351319e-05)
(1.397012266e-07 1.116913747e-07 -2.824794724e-05)
(1.02734584e-06 -9.779651357e-07 -2.924398253e-05)
(-1.681752682e-06 2.606074689e-06 -3.144366926e-05)
(-1.740788705e-07 3.231875721e-06 -2.719754328e-05)
(-3.830665902e-07 5.105561471e-07 -2.888032825e-05)
(-3.442061334e-07 2.324427072e-06 -2.960006241e-05)
(1.811917618e-06 -1.687232806e-06 -2.717067091e-05)
(6.444294469e-06 1.296821559e-06 -2.599018396e-05)
(1.707811088e-06 2.762176608e-08 -2.610868869e-05)
(4.939557798e-06 -2.660862877e-07 -2.558881582e-05)
(4.337546926e-06 6.62989099e-07 -2.561957012e-05)
(2.360574522e-06 -1.50646097e-06 -2.63594416e-05)
(2.015067869e-06 -2.606289469e-06 -2.522546344e-05)
(6.831998266e-07 3.553283979e-06 -2.528105478e-05)
(1.636294426e-06 -2.335282412e-06 -2.491188993e-05)
(5.184751117e-06 -1.963691507e-06 -2.317439514e-05)
(1.623469746e-06 -4.639064227e-07 -2.595682612e-05)
(2.070300844e-06 -2.27662541e-08 -2.721597932e-05)
(4.271002667e-06 6.515781963e-08 -2.368426649e-05)
(3.173045892e-06 6.580202499e-07 -2.470489633e-05)
(1.956582841e-06 -4.876647243e-06 -2.690095255e-05)
(-1.312943553e-06 -2.369521652e-06 -2.464356639e-05)
(5.291555542e-06 -1.67789844e-06 -2.531602557e-05)
(6.135819008e-06 5.755066593e-07 -2.782930646e-05)
(-3.574632214e-06 -7.340909709e-07 -2.967997857e-05)
(-6.791963845e-08 -1.75292619e-06 -2.728972169e-05)
(-2.222752703e-06 -3.68370112e-06 -2.873059955e-05)
(5.940278055e-06 6.337263364e-07 -2.754653998e-05)
(8.445312555e-06 7.8041719e-07 -2.6767007e-05)
(8.763933431e-06 -3.948870337e-06 -2.675588805e-05)
(1.393294498e-05 -5.913686451e-06 -2.681208893e-05)
(1.856877069e-06 2.120157213e-06 -2.62077385e-05)
(6.824963204e-06 -3.68107466e-06 -2.79903776e-05)
(3.761897318e-06 1.386798802e-06 -2.641371745e-05)
(2.283212528e-06 3.883496335e-06 -1.984845824e-05)
(8.988083479e-06 1.57051894e-06 -1.979567551e-05)
(2.615171433e-06 -7.649919231e-07 -2.688827238e-05)
(4.747449081e-06 -8.636447876e-07 -2.143846158e-05)
(2.798412061e-06 2.264701062e-06 -2.170103951e-05)
(2.068021778e-06 -2.172737973e-06 -3.035808331e-05)
(4.03629848e-06 2.991831731e-07 -2.692034165e-05)
(-4.085859987e-06 4.332491902e-07 -2.738098292e-05)
(2.912899501e-06 5.104612568e-07 -2.657233163e-05)
(1.188943379e-06 -1.490567968e-06 -2.747013492e-05)
(2.721661139e-06 2.047227541e-06 -2.489498779e-05)
(6.819655085e-06 1.491148262e-06 -2.793067461e-05)
(2.169825857e-06 -2.839753104e-06 -2.633864346e-05)
(3.115699117e-06 2.033389642e-06 -2.537484961e-05)
(4.356225787e-06 1.160009975e-06 -2.661899128e-05)
(3.478470091e-06 -1.809192356e-06 -2.630316416e-05)
(3.037028441e-06 1.414897049e-06 -2.549573664e-05)
(2.566298494e-07 4.925358848e-07 -2.848527427e-05)
(1.480992362e-06 6.047911908e-07 -2.871821154e-05)
(-4.299969879e-07 -4.590886868e-07 -2.865799278e-05)
(3.112473215e-06 6.980315173e-07 -2.916240066e-05)
(3.070715455e-06 -5.102884518e-07 -2.916327642e-05)
(5.499482016e-06 -2.122221564e-06 -2.866029846e-05)
(1.576428831e-06 -3.952212785e-09 -2.894672397e-05)
(1.212974951e-06 -1.236491297e-06 -2.897275764e-05)
(5.434551109e-06 5.463995202e-07 -2.815483014e-05)
(-6.797060739e-07 -9.642295483e-07 -2.866015583e-05)
(-2.465721219e-06 4.119382537e-07 -2.907444071e-05)
(1.982586368e-07 -3.158047343e-07 -2.976020496e-05)
(-5.150632946e-06 -1.180680086e-07 -2.774450838e-05)
(-4.469300168e-06 9.478775399e-07 -2.876758439e-05)
(-5.363799366e-06 -6.491855956e-07 -3.060894275e-05)
(-2.791309702e-06 -8.927062133e-09 -2.855906508e-05)
(-2.894587574e-06 2.358629054e-06 -2.726361625e-05)
(-1.372186354e-06 -1.396255347e-06 -2.930196028e-05)
(-8.31189638e-06 -2.078749826e-06 -2.308444721e-05)
(-4.762991926e-06 -5.055829929e-07 -2.491858937e-05)
(-5.183240478e-06 8.138916165e-07 -2.529675328e-05)
(-6.874423428e-06 -2.635015617e-06 -2.428531169e-05)
(-5.684804072e-06 -9.693534862e-07 -2.505117244e-05)
(-8.578688074e-06 1.951853816e-06 -2.55654309e-05)
(-8.077000495e-06 -6.532627248e-07 -2.575840649e-05)
(-4.123480714e-06 5.738820793e-07 -2.551112664e-05)
(-9.24190827e-06 1.97722304e-06 -2.671502441e-05)
(-4.322417943e-07 -1.839128188e-08 -2.832573423e-05)
(-1.455349001e-06 -8.497914088e-07 -2.742816392e-05)
(1.826432552e-07 3.240156952e-06 -2.772069145e-05)
(-4.734052553e-06 -2.216386366e-06 -2.787502569e-05)
(-5.341769449e-06 -5.242250076e-07 -2.695722222e-05)
(-6.079700473e-06 2.66718745e-06 -2.680108403e-05)
(-1.263281786e-06 -5.783033492e-06 -2.606526646e-05)
(-5.108686441e-06 2.312179715e-06 -2.585811024e-05)
(-5.006081347e-06 1.929922189e-06 -2.644347758e-05)
(-2.266045021e-06 9.822009297e-08 -2.97743828e-05)
(-2.473189778e-06 -2.196799415e-07 -2.572143205e-05)
(-7.47074541e-06 5.730143064e-08 -2.761625095e-05)
(-1.986742336e-06 -4.011057408e-07 -2.89126201e-05)
(-4.812874312e-06 1.934188617e-06 -2.48135581e-05)
(-5.053485122e-06 7.036309758e-08 -2.562454697e-05)
(-8.457943075e-07 4.840290112e-07 -2.746354738e-05)
(-2.815936825e-06 6.567058909e-07 -2.548536951e-05)
(-2.542211517e-06 -1.025234864e-06 -2.409596033e-05)
(1.624391532e-06 6.844840053e-08 -2.882543739e-05)
(-1.257745093e-06 4.253050471e-07 -3.016191936e-05)
(-7.185254189e-07 -2.954075264e-06 -3.169315884e-05)
(-1.169987771e-06 -1.94246014e-06 -2.9189971e-05)
(-5.881213792e-07 2.663470962e-06 -2.986053303e-05)
(-3.598304165e-06 -2.059939516e-06 -3.325282713e-05)
(9.373796728e-07 5.078761712e-07 -2.986857031e-05)
(3.619861563e-06 2.350024213e-06 -3.036600352e-05)
(1.781978492e-06 3.077774016e-06 -3.169781112e-05)
(1.377039198e-06 8.641743567e-07 -2.470140997e-05)
(-2.304117035e-06 -5.610315844e-07 -2.921290088e-05)
(-8.340641619e-06 1.509507556e-06 -3.024527706e-05)
(-6.505655784e-07 5.212374572e-07 -2.39969395e-05)
(-1.217242532e-06 -2.050607354e-07 -2.728452147e-05)
(-4.808488827e-06 -2.320816716e-06 -2.937471788e-05)
(-2.957496162e-06 -5.181525759e-06 -2.350152249e-05)
(-3.898517252e-06 6.755423609e-06 -2.605746719e-05)
(-2.41402489e-06 -1.108209738e-06 -2.882490647e-05)
(1.58176328e-06 -2.544541977e-07 -2.663056226e-05)
(2.79628102e-06 2.447291941e-06 -2.636575845e-05)
(5.077780241e-06 1.595891207e-06 -2.520754387e-05)
(-1.272890316e-07 -1.47051201e-06 -2.590189057e-05)
(2.107902108e-06 1.132322026e-06 -2.728815861e-05)
(8.319298004e-07 -5.071398972e-07 -2.463011657e-05)
(2.479093968e-06 -2.030985695e-06 -2.717290489e-05)
(3.907282514e-06 -4.563857295e-06 -2.763194226e-05)
(2.418273369e-06 2.738690921e-06 -2.671403483e-05)
(-1.199692822e-05 -6.275367308e-08 -4.166896028e-05)
(-7.675467739e-07 1.2466904e-06 -2.890771477e-05)
(-6.288994818e-06 1.205141996e-06 -2.323929233e-05)
(5.052823874e-06 -1.981600729e-06 -3.347763779e-05)
(6.553311645e-06 -7.853822734e-07 -2.691253132e-05)
(2.568728023e-06 3.900834148e-06 -2.523789581e-05)
(6.798043859e-06 -2.165959181e-06 -2.964896925e-05)
(5.200324268e-06 -5.926450149e-06 -2.754881168e-05)
(3.6308236e-06 1.886620738e-06 -2.89849914e-05)
(1.578062605e-05 -4.558699755e-07 -1.091352417e-05)
(1.00848345e-05 -8.627675291e-07 -2.487970832e-05)
(1.528354923e-05 3.842529987e-06 -2.667550237e-05)
(3.159391619e-07 -1.857363823e-06 -1.969494681e-05)
(4.651509791e-06 -1.930026538e-06 -2.818161048e-05)
(4.880232505e-06 3.386973741e-06 -2.51374888e-05)
(-4.072565636e-06 -8.776529963e-07 -2.777683977e-05)
(3.214407857e-06 -1.277118445e-06 -2.925821058e-05)
(1.629802e-06 -9.396954811e-08 -2.380106768e-05)
(7.592414762e-06 6.582768315e-07 -2.836689065e-05)
(5.896782933e-06 -6.265621935e-07 -2.600054e-05)
(-9.367751637e-07 -1.345464943e-06 -2.765610553e-05)
(1.049315417e-05 -1.367800116e-06 -2.91476544e-05)
(5.753241055e-06 9.802914269e-07 -2.632669252e-05)
(4.376884771e-06 -2.212989534e-06 -2.901795689e-05)
(3.573600578e-06 6.97767944e-08 -2.9274347e-05)
(5.151061094e-06 -6.300532342e-07 -2.588931626e-05)
(5.343708477e-06 -5.378090965e-07 -2.803075039e-05)
(3.279973364e-06 1.416765182e-06 -2.820705474e-05)
(5.310385664e-07 1.646230359e-06 -3.155892632e-05)
(9.335643064e-07 -2.463563239e-07 -3.009829402e-05)
(1.213551415e-06 -4.454157942e-09 -2.793223407e-05)
(2.192941888e-06 8.692475356e-07 -3.307238809e-05)
(1.268378869e-06 -4.578073634e-07 -2.942841769e-05)
(1.810864185e-06 9.152378227e-07 -2.865200106e-05)
(2.136581419e-06 -1.756233431e-07 -3.067535192e-05)
(3.717733405e-06 5.783759657e-07 -3.065832274e-05)
(-2.086706918e-06 1.549885488e-06 -2.540262331e-05)
(-2.605406554e-06 -1.568356269e-06 -2.603576785e-05)
(-1.700579146e-06 1.595596091e-06 -2.530584927e-05)
(-1.258565127e-06 2.138441151e-06 -2.548933472e-05)
(3.943299133e-07 -7.82233442e-07 -2.415872442e-05)
(-2.086316623e-06 5.269298387e-07 -2.447210851e-05)
(-1.876488784e-07 7.020699281e-07 -2.666134299e-05)
(1.25726577e-06 -4.181765924e-07 -2.744949051e-05)
(1.777254928e-06 1.782467426e-06 -2.547475961e-05)
(-4.980535436e-06 -1.907246255e-06 -2.445701417e-05)
(-3.06046662e-06 -3.636551012e-08 -2.333317717e-05)
(-1.823796281e-06 1.585854215e-08 -2.386216106e-05)
(-1.401040298e-06 -6.164540594e-07 -2.474204081e-05)
(4.481434478e-07 -1.488728887e-06 -2.398169266e-05)
(-2.097499118e-07 9.825519302e-07 -2.412313099e-05)
(-2.407162802e-06 1.099697223e-06 -2.456685044e-05)
(5.672499945e-07 -2.07687335e-06 -2.321594161e-05)
(-3.55941824e-07 2.08897426e-06 -2.314551154e-05)
(-3.873673966e-06 1.06873261e-06 -2.837606861e-05)
(-1.907472539e-08 1.916031666e-06 -2.731340509e-05)
(-9.330297682e-07 -2.694971469e-06 -2.756906756e-05)
(-1.698833826e-06 2.321490257e-06 -2.787692314e-05)
(1.523660081e-06 1.397971425e-06 -2.726836835e-05)
(1.81823776e-06 -1.223746793e-06 -2.677085877e-05)
(-4.053999875e-06 -2.282007931e-07 -2.698444515e-05)
(-6.796389771e-07 -1.027482837e-06 -2.716085174e-05)
(-1.2906958e-07 -6.323871727e-07 -2.586167546e-05)
(-1.865537049e-06 2.721798527e-06 -2.766686094e-05)
(1.080909085e-06 -2.255659016e-06 -2.622783129e-05)
(3.443913571e-06 -1.135930502e-06 -2.606425773e-05)
(-1.353778038e-06 -2.022091268e-06 -2.755074466e-05)
(1.283706294e-06 8.804529928e-08 -2.683423587e-05)
(3.773447183e-06 -1.725235747e-06 -2.37836864e-05)
(-2.253173505e-06 -1.340979914e-06 -2.689190768e-05)
(-8.701483365e-07 8.66646323e-07 -2.639745919e-05)
(5.89366689e-08 -1.795874831e-06 -2.209676395e-05)
(2.975149992e-06 3.051479209e-06 -2.686001019e-05)
(3.915006325e-06 5.547902494e-06 -2.834537986e-05)
(2.952853269e-06 5.138098329e-07 -2.84344215e-05)
(2.801642212e-06 -1.246608319e-07 -2.820827845e-05)
(2.331566906e-06 5.762427632e-07 -2.922568438e-05)
(1.119324667e-06 1.369365979e-06 -2.971422441e-05)
(4.191983335e-08 -1.222143812e-06 -2.89298674e-05)
(-2.661150657e-06 4.14343645e-07 -2.772594025e-05)
(1.236608201e-06 2.33072808e-06 -2.716378124e-05)
(9.548791004e-07 7.454075323e-07 -2.562288269e-05)
(5.392267561e-06 4.305045125e-06 -2.722033636e-05)
(7.682182601e-06 -2.128889857e-06 -2.722293373e-05)
(5.834739815e-06 -1.805624316e-06 -2.589042202e-05)
(1.194262485e-06 1.049513087e-06 -2.915600457e-05)
(4.740309171e-07 7.954628171e-07 -2.944706666e-05)
(2.375399915e-06 -4.919446639e-06 -2.59899742e-05)
(-2.624585552e-07 5.683301746e-07 -3.564921929e-05)
(-1.527886211e-06 5.323806165e-07 -3.691488273e-05)
(2.903240847e-06 -4.94532799e-06 -2.514127925e-05)
(4.978928357e-06 -3.617237518e-06 -2.309389876e-05)
(4.110283144e-06 6.993683055e-06 -2.449717854e-05)
(3.326791556e-06 -9.801577136e-07 -2.674303735e-05)
(7.443671386e-06 -5.064239766e-07 -2.508070373e-05)
(4.84642817e-06 5.364755166e-06 -2.531517438e-05)
(4.41251415e-06 -1.838097628e-06 -2.613016858e-05)
(7.695372409e-07 6.666522087e-07 -2.43639526e-05)
(-3.687141972e-06 1.985452114e-07 -2.515970989e-05)
(9.672822059e-07 -1.252707506e-05 -2.86679022e-05)
(7.224094716e-07 -5.500639452e-08 -2.491833597e-05)
(3.280262024e-06 -1.764302249e-06 -2.613723794e-05)
(5.983432715e-06 -5.710825438e-06 -2.905381348e-05)
(1.510523394e-06 -1.06678702e-07 -2.138786699e-05)
(3.32244583e-06 3.530038973e-07 -2.085781155e-05)
(5.214823982e-06 -1.187278873e-06 -2.848511042e-05)
(2.442107989e-06 -3.926278832e-06 -2.17053784e-05)
(2.135447583e-07 -2.408934235e-06 -1.824313773e-05)
(4.909063792e-06 5.014842958e-06 -2.85194381e-05)
(-1.434545636e-06 1.785223542e-06 -2.718449808e-05)
(6.289832331e-06 -1.001584243e-06 -3.025436718e-05)
(9.867977341e-09 4.449457169e-06 -2.812365622e-05)
(2.415757624e-06 1.007823254e-07 -2.657171376e-05)
(3.679771059e-06 -3.673811271e-06 -3.191022055e-05)
(1.644757257e-06 2.792572407e-06 -2.918352114e-05)
(-2.435439219e-06 6.697466931e-08 -2.631792955e-05)
(3.663274828e-06 -5.942769306e-07 -3.143970437e-05)
(3.573251461e-06 2.915037921e-06 -2.772523729e-05)
(5.068016811e-06 -1.535269064e-06 -2.750245515e-05)
(6.575447792e-06 1.822192482e-06 -2.543841103e-05)
(1.330517955e-06 2.066504436e-06 -2.770551662e-05)
(8.868989591e-06 -6.926036685e-07 -2.930190959e-05)
(4.330266663e-06 5.187071993e-07 -2.585713311e-05)
(5.456620585e-06 1.196283429e-06 -2.766547554e-05)
(8.934352424e-06 -4.53855463e-07 -2.943358451e-05)
(8.164477126e-06 1.570154121e-06 -2.56725033e-05)
(1.450616023e-06 1.573814826e-06 -2.785680815e-05)
(3.510945924e-06 -1.48771492e-06 -2.907556852e-05)
(3.98611358e-06 4.744468341e-07 -3.091797366e-05)
(2.242632633e-06 1.985933415e-06 -3.05030397e-05)
(2.485361448e-06 -2.453494152e-06 -2.948828824e-05)
(2.276955549e-06 5.665263764e-07 -2.911620865e-05)
(4.019594165e-06 9.854917763e-08 -3.393112269e-05)
(3.372512802e-06 -7.472562561e-07 -2.980693682e-05)
(3.174224043e-06 5.408321002e-07 -3.272636301e-05)
(-2.84063484e-06 -2.490453446e-06 -2.913339832e-05)
(-3.938417196e-06 1.201652263e-06 -2.652833708e-05)
(-3.643220398e-06 -9.807254003e-08 -2.777552683e-05)
(1.78466962e-06 -1.369439253e-06 -2.624989324e-05)
(-9.424547055e-07 -9.102236504e-07 -2.56352426e-05)
(-1.213201669e-06 8.108222549e-07 -2.881875709e-05)
(2.959695777e-06 1.67066393e-07 -2.600667555e-05)
(1.389348481e-06 -3.99138262e-07 -2.738016338e-05)
(3.468292722e-06 1.59397735e-06 -3.067883667e-05)
(-2.881043804e-06 -2.776617127e-07 -2.399081973e-05)
(-4.423961488e-06 1.156503705e-06 -2.40006524e-05)
(-7.740173407e-06 5.398146968e-07 -2.530672646e-05)
(-2.366972266e-06 -3.951181471e-07 -2.640339979e-05)
(-1.56981033e-06 1.58637496e-06 -2.481107174e-05)
(-2.520198726e-06 1.702770839e-06 -2.692719668e-05)
(1.165804865e-06 7.500728111e-07 -1.995146627e-05)
(-2.093984064e-06 1.899269403e-07 -2.212918194e-05)
(1.05006458e-06 1.208330429e-06 -2.247614996e-05)
(-1.731263988e-06 9.991700056e-07 -2.787538097e-05)
(-6.537872e-07 8.53783646e-07 -2.63734148e-05)
(-1.537732905e-06 3.842828132e-06 -2.63489043e-05)
(-2.220113543e-06 1.793068032e-06 -2.579036598e-05)
(-1.124012556e-06 -1.516163827e-06 -2.570373446e-05)
(-9.113215923e-07 2.414714138e-06 -2.703797754e-05)
(1.654253067e-06 -4.54434423e-07 -2.966614474e-05)
(-1.732924934e-06 6.603561433e-07 -2.470621728e-05)
(1.463226538e-06 -5.174575939e-07 -2.557976046e-05)
(2.584870907e-06 2.442634292e-07 -2.465984033e-05)
(1.594073543e-06 -1.927553373e-06 -2.529445956e-05)
(2.136743599e-06 -1.231494477e-06 -2.275504128e-05)
(3.245006613e-06 -4.717547547e-07 -2.484696916e-05)
(2.972811499e-06 -5.308482606e-07 -2.357286158e-05)
(3.818617064e-06 -5.713620155e-07 -2.22199422e-05)
(1.818448197e-06 1.088814472e-06 -2.575836082e-05)
(-2.809146057e-06 5.035774679e-07 -2.373057796e-05)
(1.865545011e-06 1.866060927e-07 -2.489358403e-05)
(1.738515649e-06 6.879647356e-07 -3.052186202e-05)
(2.763386002e-06 1.886630724e-06 -2.951269756e-05)
(9.133427359e-07 7.3821341e-07 -2.990186024e-05)
(4.559517948e-06 -2.702751239e-06 -2.901169814e-05)
(7.419901479e-07 2.140788405e-06 -3.10621439e-05)
(-7.430840548e-07 -1.015180443e-06 -2.948294704e-05)
(6.04440803e-06 1.124408406e-06 -2.345317746e-05)
(-1.247583301e-06 -6.818324061e-07 -2.690559337e-05)
(5.835851644e-06 1.013574351e-06 -2.897685803e-05)
(2.279312271e-06 -6.826853286e-07 -2.683067947e-05)
(1.040336018e-06 6.213835471e-06 -2.831799048e-05)
(-6.307688052e-07 1.422729257e-06 -2.841618691e-05)
(8.680419e-08 3.446098325e-06 -2.787380598e-05)
(3.598669507e-07 -4.734964256e-07 -2.932280171e-05)
(-1.78099748e-07 -7.332284963e-08 -3.130167977e-05)
(3.683113537e-06 3.160055529e-06 -3.25070841e-05)
(2.482107589e-06 -2.360562888e-06 -3.494476748e-05)
(2.074828208e-06 -1.0031139e-06 -3.698299388e-05)
(-5.527707848e-06 -1.180103061e-06 -2.635710203e-05)
(2.04578269e-06 -5.539032443e-06 -2.827842931e-05)
(4.310881964e-06 1.121212854e-06 -2.730132815e-05)
(4.212709875e-06 2.347432294e-06 -2.563095775e-05)
(6.059861394e-06 -3.719130177e-06 -2.817413139e-05)
(5.604426886e-06 -1.518275674e-06 -2.612759149e-05)
(-1.308386926e-06 4.191452678e-06 -2.443420555e-05)
(2.58354137e-06 -8.308852694e-07 -2.891850534e-05)
(2.459858237e-06 -2.04223414e-06 -2.58973605e-05)
(1.270868904e-05 -3.3059852e-06 -2.877743889e-05)
(7.807119225e-06 -6.439084754e-06 -2.75615449e-05)
(-6.220935979e-06 -2.879765155e-07 -2.669930437e-05)
(6.622969031e-06 -7.240073989e-07 -3.062676912e-05)
(6.778677544e-06 2.206388193e-06 -2.468544327e-05)
(-1.923044075e-06 -4.213573743e-06 -2.163671133e-05)
(-1.860804441e-06 -1.487530266e-07 -2.688833092e-05)
(4.394033021e-06 3.62101836e-06 -2.244343343e-05)
(3.256493886e-06 1.58710479e-06 -2.552691203e-05)
(7.815411811e-06 2.945906324e-06 -2.645739789e-05)
(3.532231605e-06 1.103844334e-06 -2.59239967e-05)
(1.32869645e-07 -2.763804981e-06 -2.078422763e-05)
(3.84294506e-06 3.390868054e-07 -2.970620477e-05)
(3.364366838e-06 7.111852443e-06 -2.815736834e-05)
(8.4747567e-06 -4.012880022e-06 -2.653730566e-05)
(2.468890321e-06 -3.407780466e-07 -3.048213787e-05)
(-3.057139064e-07 -9.702962467e-07 -2.880078302e-05)
(-3.319420231e-06 -9.056912282e-06 -2.181167509e-05)
)


// ************************************************************************* //
