/*--------------------------------*- C++ -*----------------------------------*\
  =========                 |
  \\      /  F ield         | OpenFOAM: The Open Source CFD Toolbox
   \\    /   O peration     | Website:  https://openfoam.org
    \\  /    A nd           | Version:  7
     \\/     M anipulation  |
\*---------------------------------------------------------------------------*/
FoamFile
{
    version     2.0;
    format      ascii;
    class       volScalarField;
    location    "0.005";
    object      kappaavg;
}
// * * * * * * * * * * * * * * * * * * * * * * * * * * * * * * * * * * * * * //

dimensions      [1 1 -3 -1 0 0 0];

internalField   nonuniform List<scalar> 
27
(
0.02999375629
0.02999375629
0.02999375629
0.02999375629
0.02999375629
0.02999375629
0.02999375629
0.02999375629
0.02999375629
0.02999375629
0.02999375629
0.02999375629
0.02999375629
0.02999375629
0.02999375629
0.02999375629
0.02999375629
0.02999375629
0.02999375629
0.02999375629
0.02999375629
0.02999375629
0.02999375629
0.02999375629
0.02999375629
0.02999375629
0.02999375629
)
;

boundaryField
{
    inlet
    {
        type            calculated;
        value           nonuniform 0();
    }
    outlet
    {
        type            calculated;
        value           uniform 0.02999375629;
    }
    walls
    {
        type            calculated;
        value           uniform 0.02999375629;
    }
    procBoundary1to0
    {
        type            processor;
        value           nonuniform List<scalar> 9(0.02999375629 0.02999375629 0.02999375629 0.02999375629 0.02999375629 0.02999375629 0.02999375629 0.02999375629 0.02999375629);
    }
}


// ************************************************************************* //
