/*--------------------------------*- C++ -*----------------------------------*\
  =========                 |
  \\      /  F ield         | OpenFOAM: The Open Source CFD Toolbox
   \\    /   O peration     | Website:  https://openfoam.org
    \\  /    A nd           | Version:  7
     \\/     M anipulation  |
\*---------------------------------------------------------------------------*/
FoamFile
{
    version     2.0;
    format      ascii;
    class       volVectorField;
    location    "0.005";
    object      U;
}
// * * * * * * * * * * * * * * * * * * * * * * * * * * * * * * * * * * * * * //

dimensions      [0 1 -1 0 0 0 0];

internalField   nonuniform List<vector> 
27
(
(1.23073899 0.0003298657274 -0.01774456157)
(1.242510042 -1.153854143e-06 -0.01792306025)
(1.23074099 -0.0003310213757 -0.01774418099)
(1.243856283 0.0003549919956 0.005601838754)
(1.255868774 -7.828737532e-07 0.005612199012)
(1.243856253 -0.0003557593468 0.005602788124)
(1.233365302 0.0003667309594 -0.01843645519)
(1.245198596 -2.04469095e-07 -0.01862812525)
(1.233363608 -0.0003669218438 -0.01843587099)
(1.228991411 0.00208851505 -0.01804847021)
(1.242041238 1.256847368e-06 -0.01826668949)
(1.228991234 -0.002087299171 -0.01804957377)
(1.241287402 0.002126153671 0.003834750011)
(1.254612525 1.267303861e-07 0.003808332326)
(1.241288614 -0.002126020564 0.003832370843)
(1.227446015 0.002135837686 -0.02226966866)
(1.240540133 -1.122305689e-06 -0.02251558666)
(1.227446356 -0.002136930923 -0.02227087422)
(1.247020446 -0.0009525566185 -0.0526982394)
(1.260876256 -1.282346306e-06 -0.05309870186)
(1.247017253 0.0009512484177 -0.05269651905)
(1.239805183 -0.0009080827887 -0.02925531435)
(1.253798013 4.270996881e-07 -0.02945725188)
(1.239805707 0.0009085130082 -0.0292539235)
(1.205163472 -0.0008703148567 -0.05086419318)
(1.218741235 1.085342002e-07 -0.05127113436)
(1.205165273 0.0008704429512 -0.0508644773)
)
;

boundaryField
{
    inlet
    {
        type            interstitialInletVelocity;
        inletVelocity   nonuniform 0();
        value           nonuniform 0();
    }
    outlet
    {
        type            pressureInletOutletVelocity;
        phi             alphaRhoPhi;
        value           nonuniform List<vector> 9((1.247020446 -0.0009525566185 -0.0526982394) (1.239805183 -0.0009080827887 -0.02925531435) (1.205163472 -0.0008703148567 -0.05086419318) (1.260876256 -1.282346306e-06 -0.05309870186) (1.253798013 4.270996881e-07 -0.02945725188) (1.218741235 1.085342002e-07 -0.05127113436) (1.247017253 0.0009512484177 -0.05269651905) (1.239805707 0.0009085130082 -0.0292539235) (1.205165273 0.0008704429512 -0.0508644773));
    }
    walls
    {
        type            noSlip;
    }
    procBoundary1to0
    {
        type            processor;
        value           nonuniform List<vector> 9((1.236811472 0.0007136366927 -0.01488210454) (1.247235307 4.083741004e-07 -0.01500243274) (1.236819195 -0.0007132807563 -0.01488238458) (1.247923534 0.0007378025877 0.006810998135) (1.258534629 7.772328607e-08 0.006849975242) (1.247922522 -0.0007377292518 0.006810277412) (1.238126719 0.0007369447876 -0.0163278095) (1.248603059 -3.123321957e-07 -0.01647296534) (1.238119792 -0.00073722851 -0.01632816909));
    }
}


// ************************************************************************* //
