/*--------------------------------*- C++ -*----------------------------------*\
  =========                 |
  \\      /  F ield         | OpenFOAM: The Open Source CFD Toolbox
   \\    /   O peration     | Website:  https://openfoam.org
    \\  /    A nd           | Version:  7
     \\/     M anipulation  |
\*---------------------------------------------------------------------------*/
FoamFile
{
    version     2.0;
    format      ascii;
    class       volVectorField;
    location    "0.005";
    object      Uavg;
}
// * * * * * * * * * * * * * * * * * * * * * * * * * * * * * * * * * * * * * //

dimensions      [0 1 -1 0 0 0 0];

internalField   nonuniform List<vector> 
27
(
(0.8707640882 0 0)
(0.8707640882 0 0)
(0.8707640882 0 0)
(0.8707640882 0 0)
(0.8707640882 0 0)
(0.8707640882 0 0)
(0.8707640882 0 0)
(0.8707640882 0 0)
(0.8707640882 0 0)
(0.8842409136 0 0)
(0.8842409136 0 0)
(0.8842409136 0 0)
(0.8842409136 0 0)
(0.8842409136 0 0)
(0.8842409136 0 0)
(0.8842409136 0 0)
(0.8842409136 0 0)
(0.8842409136 0 0)
(0.8971824995 0 0)
(0.8971824995 0 0)
(0.8971824995 0 0)
(0.8971824995 0 0)
(0.8971824995 0 0)
(0.8971824995 0 0)
(0.8971824995 0 0)
(0.8971824995 0 0)
(0.8971824995 0 0)
)
;

boundaryField
{
    inlet
    {
        type            interstitialInletVelocity;
        inletVelocity   nonuniform 0();
        value           nonuniform 0();
    }
    outlet
    {
        type            pressureInletOutletVelocity;
        phi             alphaRhoPhi;
        value           uniform (0 0 0);
    }
    walls
    {
        type            noSlip;
    }
    procBoundary1to0
    {
        type            processor;
        value           nonuniform List<vector> 9((0.8707640882 0 0) (0.8707640882 0 0) (0.8707640882 0 0) (0.8707640882 0 0) (0.8707640882 0 0) (0.8707640882 0 0) (0.8707640882 0 0) (0.8707640882 0 0) (0.8707640882 0 0));
    }
}


// ************************************************************************* //
