/*--------------------------------*- C++ -*----------------------------------*\
  =========                 |
  \\      /  F ield         | OpenFOAM: The Open Source CFD Toolbox
   \\    /   O peration     | Website:  https://openfoam.org
    \\  /    A nd           | Version:  7
     \\/     M anipulation  |
\*---------------------------------------------------------------------------*/
FoamFile
{
    version     2.0;
    format      ascii;
    class       volScalarField;
    location    "0.045";
    object      alpha;
}
// * * * * * * * * * * * * * * * * * * * * * * * * * * * * * * * * * * * * * //

dimensions      [0 0 0 0 0 0 0];

internalField   nonuniform List<scalar> 
27
(
0.6342545205
0.633553209
0.6342545205
0.633553209
0.632770534
0.633553209
0.6342545205
0.633553209
0.6342545205
0.6606170563
0.6598908379
0.6606170563
0.6598908379
0.6590526349
0.6598908379
0.6606170563
0.6598908379
0.6606170563
0.7098422382
0.7093444097
0.7098422382
0.7093444097
0.7087854235
0.7093444097
0.7098422382
0.7093444097
0.7098422382
)
;

boundaryField
{
    inlet
    {
        type            zeroGradient;
    }
    outlet
    {
        type            zeroGradient;
    }
    walls
    {
        type            zeroGradient;
    }
    procBoundary0to1
    {
        type            processor;
        value           nonuniform List<scalar> 9(0.7673387676 0.767085853 0.7673387676 0.767085853 0.7668108809 0.767085853 0.7673387676 0.767085853 0.7673387676);
    }
}


// ************************************************************************* //
