/*--------------------------------*- C++ -*----------------------------------*\
  =========                 |
  \\      /  F ield         | OpenFOAM: The Open Source CFD Toolbox
   \\    /   O peration     | Website:  https://openfoam.org
    \\  /    A nd           | Version:  7
     \\/     M anipulation  |
\*---------------------------------------------------------------------------*/
FoamFile
{
    version     2.0;
    format      ascii;
    class       surfaceScalarField;
    location    "0.045";
    object      alphaRhoPhi;
}
// * * * * * * * * * * * * * * * * * * * * * * * * * * * * * * * * * * * * * //

dimensions      [1 0 -1 0 0 0 0];

internalField   nonuniform List<scalar> 
54
(
2.64704997e-08
3.659644747e-08
2.314897841e-05
-2.645563006e-08
3.605813497e-08
2.322892208e-05
3.659587734e-08
2.314899254e-05
2.604786065e-08
-1.664569514e-08
2.323923309e-05
-2.60377391e-08
-1.622862966e-08
2.331639903e-05
-1.664594241e-08
2.323923771e-05
2.663658081e-08
2.316873364e-05
-2.66231537e-08
2.324905103e-05
2.316874338e-05
3.097387637e-08
2.043461475e-08
2.309960557e-05
-3.097331251e-08
2.023596428e-08
2.327266421e-05
2.043821395e-08
2.309961552e-05
3.090484796e-08
-4.203080697e-08
2.327282093e-05
-3.089526642e-08
-4.190021873e-08
2.3442367e-05
-4.203222466e-08
2.327282951e-05
3.121269579e-08
2.309752099e-05
-3.120871067e-08
2.327158742e-05
2.309752954e-05
4.205226446e-08
8.873395799e-09
-4.20698483e-08
9.209528994e-09
8.875290744e-09
4.235521082e-08
-7.348349381e-08
-4.236207404e-08
-7.343053845e-08
-7.348793312e-08
4.24048347e-08
-4.242504374e-08
)
;

boundaryField
{
    inlet
    {
        type            calculated;
        value           nonuniform List<scalar> 9(-2.321116755e-05 -2.321115217e-05 -2.321114011e-05 -2.321116601e-05 -2.321115065e-05 -2.321113854e-05 -2.321116755e-05 -2.321115217e-05 -2.321114011e-05);
    }
    outlet
    {
        type            calculated;
        value           nonuniform 0();
    }
    walls
    {
        type            calculated;
        value           uniform 0;
    }
    procBoundary0to1
    {
        type            processor;
        value           nonuniform List<scalar> 9(2.305148032e-05 2.335039199e-05 2.305145725e-05 2.331563077e-05 2.361252028e-05 2.331563835e-05 2.29844082e-05 2.328578926e-05 2.29843966e-05);
    }
}


// ************************************************************************* //
