/*--------------------------------*- C++ -*----------------------------------*\
  =========                 |
  \\      /  F ield         | OpenFOAM: The Open Source CFD Toolbox
   \\    /   O peration     | Website:  https://openfoam.org
    \\  /    A nd           | Version:  7
     \\/     M anipulation  |
\*---------------------------------------------------------------------------*/
FoamFile
{
    version     2.0;
    format      ascii;
    class       volScalarField;
    location    "0.045";
    object      cpavg;
}
// * * * * * * * * * * * * * * * * * * * * * * * * * * * * * * * * * * * * * //

dimensions      [0 2 -2 -1 0 0 0];

internalField   nonuniform List<scalar> 
27
(
1011.620162
1011.620162
1011.620162
1011.620165
1011.620165
1011.620165
1011.620167
1011.620167
1011.620167
1011.635872
1011.635872
1011.635872
1011.635876
1011.635875
1011.635876
1011.63588
1011.635879
1011.63588
1011.662686
1011.662685
1011.662686
1011.662692
1011.662692
1011.662692
1011.6627
1011.662699
1011.6627
)
;

boundaryField
{
    inlet
    {
        type            calculated;
        value           uniform 1011.338357;
    }
    outlet
    {
        type            calculated;
        value           nonuniform 0();
    }
    walls
    {
        type            calculated;
        value           nonuniform List<scalar> 
36
(
1011.451708
1011.557982
1011.650387
1011.451924
1011.558062
1011.649905
1011.451708
1011.557982
1011.650387
1011.451707
1011.557897
1011.65033
1011.451924
1011.557975
1011.649843
1011.451707
1011.557896
1011.65033
1011.451708
1011.451924
1011.451707
1011.557982
1011.558017
1011.557896
1011.650387
1011.64987
1011.65033
1011.451708
1011.451924
1011.451707
1011.557982
1011.558017
1011.557897
1011.650387
1011.64987
1011.65033
)
;
    }
    procBoundary0to1
    {
        type            processor;
        value           nonuniform List<scalar> 9(1011.693199 1011.693198 1011.693199 1011.69321 1011.693209 1011.69321 1011.693222 1011.693221 1011.693222);
    }
}


// ************************************************************************* //
