/*--------------------------------*- C++ -*----------------------------------*\
  =========                 |
  \\      /  F ield         | OpenFOAM: The Open Source CFD Toolbox
   \\    /   O peration     | Website:  https://openfoam.org
    \\  /    A nd           | Version:  7
     \\/     M anipulation  |
\*---------------------------------------------------------------------------*/
FoamFile
{
    version     2.0;
    format      ascii;
    class       volScalarField;
    location    "0.045";
    object      muavg;
}
// * * * * * * * * * * * * * * * * * * * * * * * * * * * * * * * * * * * * * //

dimensions      [1 -1 -1 0 0 0 0];

internalField   nonuniform List<scalar> 
27
(
1.860892411e-05
1.860892406e-05
1.860892412e-05
1.860892599e-05
1.860892594e-05
1.8608926e-05
1.860892798e-05
1.860892793e-05
1.860892799e-05
1.862276969e-05
1.862276951e-05
1.86227697e-05
1.862277269e-05
1.862277251e-05
1.86227727e-05
1.862277605e-05
1.862277587e-05
1.862277606e-05
1.864636654e-05
1.864636608e-05
1.864636656e-05
1.864637192e-05
1.864637146e-05
1.864637194e-05
1.864637822e-05
1.864637776e-05
1.864637824e-05
)
;

boundaryField
{
    inlet
    {
        type            calculated;
        value           uniform 1.835366622e-05;
    }
    outlet
    {
        type            calculated;
        value           nonuniform 0();
    }
    walls
    {
        type            calculated;
        value           nonuniform List<scalar> 
36
(
1.845874451e-05
1.855508212e-05
1.863722329e-05
1.845894284e-05
1.855515309e-05
1.863679897e-05
1.845874451e-05
1.855508149e-05
1.86372234e-05
1.845874432e-05
1.855500505e-05
1.863717355e-05
1.845894265e-05
1.855507556e-05
1.863674444e-05
1.845874432e-05
1.855500463e-05
1.863717352e-05
1.845874451e-05
1.845894273e-05
1.845874432e-05
1.855508149e-05
1.855511308e-05
1.855500463e-05
1.86372234e-05
1.863676789e-05
1.863717352e-05
1.845874451e-05
1.845894273e-05
1.845874432e-05
1.855508212e-05
1.855511311e-05
1.855500505e-05
1.863722329e-05
1.863676799e-05
1.863717355e-05
)
;
    }
    procBoundary0to1
    {
        type            processor;
        value           nonuniform List<scalar> 9(1.867316594e-05 1.867316506e-05 1.867316597e-05 1.867317494e-05 1.867317406e-05 1.867317498e-05 1.86731857e-05 1.867318481e-05 1.867318573e-05);
    }
}


// ************************************************************************* //
