/*--------------------------------*- C++ -*----------------------------------*\
  =========                 |
  \\      /  F ield         | OpenFOAM: The Open Source CFD Toolbox
   \\    /   O peration     | Website:  https://openfoam.org
    \\  /    A nd           | Version:  7
     \\/     M anipulation  |
\*---------------------------------------------------------------------------*/
FoamFile
{
    version     2.0;
    format      ascii;
    class       volScalarField;
    location    "0.045";
    object      pDyn;
}
// * * * * * * * * * * * * * * * * * * * * * * * * * * * * * * * * * * * * * //

dimensions      [1 -1 -2 0 0 0 0];

internalField   nonuniform List<scalar> 
27
(
1.717241816
1.731342136
1.717244544
1.732110943
1.746596404
1.73211303
1.71879479
1.73293409
1.718797511
1.8912557
1.916157622
1.891263163
1.917267865
1.942338239
1.917269409
1.893506447
1.918521721
1.893511497
1.834191608
1.872417043
1.834187093
1.87060006
1.909127369
1.870601637
1.831041778
1.869469252
1.831040526
)
;

boundaryField
{
    inlet
    {
        type            calculated;
        value           nonuniform List<scalar> 9(2.217813326 2.222724588 2.217810705 2.222725911 2.228226426 2.222723283 2.217813326 2.222724588 2.217810705);
    }
    outlet
    {
        type            calculated;
        value           nonuniform 0();
    }
    walls
    {
        type            calculated;
        value           uniform 0;
    }
    procBoundary0to1
    {
        type            processor;
        value           nonuniform List<scalar> 9(1.586452914 1.637415128 1.58643466 1.62800144 1.679669627 1.628001175 1.57018354 1.621360748 1.570170264);
    }
}


// ************************************************************************* //
