/*--------------------------------*- C++ -*----------------------------------*\
  =========                 |
  \\      /  F ield         | OpenFOAM: The Open Source CFD Toolbox
   \\    /   O peration     | Website:  https://openfoam.org
    \\  /    A nd           | Version:  7
     \\/     M anipulation  |
\*---------------------------------------------------------------------------*/
FoamFile
{
    version     2.0;
    format      ascii;
    class       surfaceScalarField;
    location    "0.045";
    object      phi;
}
// * * * * * * * * * * * * * * * * * * * * * * * * * * * * * * * * * * * * * //

dimensions      [0 3 -1 0 0 0 0];

internalField   nonuniform List<scalar> 
54
(
3.564357493e-08
4.927857866e-08
3.061345265e-05
-3.562355238e-08
4.861127158e-08
3.075334558e-05
4.927781095e-08
3.061347105e-05
3.511607024e-08
-2.241410666e-08
3.076697458e-05
-3.510242501e-08
-2.187841345e-08
3.090822482e-05
-2.241443962e-08
3.076698066e-05
3.586725169e-08
3.063953715e-05
-3.584917153e-08
3.07799529e-05
3.063954983e-05
4.029065355e-08
2.65812112e-08
2.902789971e-05
-4.02899197e-08
2.635420838e-08
2.927121907e-05
2.658589273e-08
2.90279118e-05
4.024873571e-08
-5.467328929e-08
2.92713606e-05
-4.023625721e-08
-5.45684368e-08
2.951457903e-05
-5.4675133e-08
2.927137128e-05
4.0601151e-08
2.902518379e-05
-4.059596694e-08
2.926976259e-05
2.90251942e-05
5.116264721e-08
1.079575673e-08
-5.118404025e-08
1.121281497e-08
1.079806212e-08
5.156840503e-08
-8.940306927e-08
-5.1576761e-08
-8.940324499e-08
-8.940846959e-08
5.159144885e-08
-5.161603573e-08
)
;

boundaryField
{
    inlet
    {
        type            calculated;
        value           nonuniform List<scalar> 9(-3.102855299e-05 -3.106290004e-05 -3.102855299e-05 -3.106290004e-05 -3.11013218e-05 -3.106290004e-05 -3.102855299e-05 -3.106290004e-05 -3.102855299e-05);
    }
    outlet
    {
        type            calculated;
        value           nonuniform 0();
    }
    walls
    {
        type            calculated;
        value           uniform 0;
    }
    procBoundary0to1
    {
        type            processor;
        value           nonuniform List<scalar> 9(2.700108291e-05 2.736372825e-05 2.70010561e-05 2.73230423e-05 2.76853898e-05 2.732305123e-05 2.692263306e-05 2.728811913e-05 2.692261967e-05);
    }
}


// ************************************************************************* //
