/*--------------------------------*- C++ -*----------------------------------*\
  =========                 |
  \\      /  F ield         | OpenFOAM: The Open Source CFD Toolbox
   \\    /   O peration     | Website:  https://openfoam.org
    \\  /    A nd           | Version:  7
     \\/     M anipulation  |
\*---------------------------------------------------------------------------*/
FoamFile
{
    version     2.0;
    format      ascii;
    class       surfaceScalarField;
    location    "0.045";
    object      rhoPhi;
}
// * * * * * * * * * * * * * * * * * * * * * * * * * * * * * * * * * * * * * //

dimensions      [1 0 -1 0 0 0 0];

internalField   nonuniform List<scalar> 
54
(
4.175790868e-08
5.773185732e-08
3.575486376e-05
-4.173445145e-08
5.694931517e-08
3.591793884e-05
5.773095791e-08
3.575488559e-05
4.113933864e-08
-2.625902138e-08
3.593388233e-05
-4.112335292e-08
-2.563109118e-08
3.609843761e-05
-2.625941146e-08
3.593388947e-05
4.2019906e-08
3.57853768e-05
-4.199872438e-08
3.594906342e-05
3.578539184e-05
4.691206544e-08
3.094962907e-08
3.371075036e-05
-4.691121143e-08
3.068511229e-08
3.3993668e-05
3.09550803e-08
3.371076488e-05
4.686303635e-08
-6.365854707e-08
3.399389691e-05
-4.684850724e-08
-6.353603409e-08
3.427652397e-05
-6.366069426e-08
3.399390946e-05
4.727377387e-08
3.370770819e-05
-4.726773813e-08
3.399209517e-05
3.370772066e-05
5.926248605e-08
1.250490316e-08
-5.928726622e-08
1.29882734e-08
1.250757363e-08
5.973389717e-08
-1.035571944e-07
-5.974357644e-08
-1.035596836e-07
-1.035634506e-07
5.975934845e-08
-5.97878282e-08
)
;

boundaryField
{
    inlet
    {
        type            calculated;
        value           nonuniform List<scalar> 9(-3.659598284e-05 -3.663646849e-05 -3.659593958e-05 -3.663649032e-05 -3.668178179e-05 -3.663644697e-05 -3.659598284e-05 -3.663646849e-05 -3.659593958e-05);
    }
    outlet
    {
        type            calculated;
        value           nonuniform 0();
    }
    walls
    {
        type            calculated;
        value           uniform 0;
    }
    procBoundary0to1
    {
        type            processor;
        value           nonuniform List<scalar> 9(3.121009576e-05 3.163087696e-05 3.121006453e-05 3.158378876e-05 3.200403825e-05 3.158379903e-05 3.111928479e-05 3.154336489e-05 3.111926908e-05);
    }
}


// ************************************************************************* //
