/*--------------------------------*- C++ -*----------------------------------*\
  =========                 |
  \\      /  F ield         | OpenFOAM: The Open Source CFD Toolbox
   \\    /   O peration     | Website:  https://openfoam.org
    \\  /    A nd           | Version:  7
     \\/     M anipulation  |
\*---------------------------------------------------------------------------*/
FoamFile
{
    version     2.0;
    format      ascii;
    class       volScalarField::Internal;
    location    "0.045";
    object      steelCloud:hsTrans;
}
// * * * * * * * * * * * * * * * * * * * * * * * * * * * * * * * * * * * * * //

dimensions      [1 2 -2 0 0 0 0];

value           nonuniform List<scalar> 
27
(
0.0002374920423
0.0002379474298
0.0002374920423
0.0002379474298
0.0002384556495
0.0002379474298
0.0002374920423
0.0002379474298
0.0002374920423
0.0002203738746
0.000220845435
0.0002203738746
0.000220845435
0.0002213897112
0.000220845435
0.0002203738746
0.000220845435
0.0002203738746
0.0001884101467
0.0001887334051
0.0001884101467
0.0001887334051
0.0001890963755
0.0001887334051
0.0001884101467
0.0001887334051
0.0001884101467
)
;


// ************************************************************************* //
