/*--------------------------------*- C++ -*----------------------------------*\
  =========                 |
  \\      /  F ield         | OpenFOAM: The Open Source CFD Toolbox
   \\    /   O peration     | Website:  https://openfoam.org
    \\  /    A nd           | Version:  7
     \\/     M anipulation  |
\*---------------------------------------------------------------------------*/
FoamFile
{
    version     2.0;
    format      ascii;
    class       volVectorField::Internal;
    location    "0.045";
    object      steelCloud:UTrans;
}
// * * * * * * * * * * * * * * * * * * * * * * * * * * * * * * * * * * * * * //

dimensions      [1 1 -1 0 0 0 0];

value           nonuniform List<vector> 
27
(
(-6.375869716e-08 3.974598242e-14 -2.906696391e-10)
(-6.388095351e-08 3.982219475e-14 -2.912269938e-10)
(-6.375869716e-08 3.974598242e-14 -2.906696391e-10)
(-6.388095351e-08 3.982219475e-14 -2.912269938e-10)
(-6.401739358e-08 3.990724894e-14 -2.918490107e-10)
(-6.388095351e-08 3.982219475e-14 -2.912269938e-10)
(-6.375869716e-08 3.974598242e-14 -2.906696391e-10)
(-6.388095351e-08 3.982219475e-14 -2.912269938e-10)
(-6.375869716e-08 3.974598242e-14 -2.906696391e-10)
(-5.916303972e-08 3.68811353e-14 -2.697184881e-10)
(-5.928963797e-08 3.696005429e-14 -2.702956371e-10)
(-5.916303972e-08 3.68811353e-14 -2.697184881e-10)
(-5.928963797e-08 3.696005429e-14 -2.702956371e-10)
(-5.943575798e-08 3.705114277e-14 -2.709617839e-10)
(-5.928963797e-08 3.696005429e-14 -2.702956371e-10)
(-5.916303972e-08 3.68811353e-14 -2.697184881e-10)
(-5.928963797e-08 3.696005429e-14 -2.702956371e-10)
(-5.916303972e-08 3.68811353e-14 -2.697184881e-10)
(-5.058184421e-08 3.15317781e-14 -2.305976605e-10)
(-5.066862832e-08 3.158587769e-14 -2.309933007e-10)
(-5.058184421e-08 3.15317781e-14 -2.305976605e-10)
(-5.066862832e-08 3.158587769e-14 -2.309933007e-10)
(-5.076607376e-08 3.164662336e-14 -2.314375449e-10)
(-5.066862832e-08 3.158587769e-14 -2.309933007e-10)
(-5.058184421e-08 3.15317781e-14 -2.305976605e-10)
(-5.066862832e-08 3.158587769e-14 -2.309933007e-10)
(-5.058184421e-08 3.15317781e-14 -2.305976605e-10)
)
;


// ************************************************************************* //
