/*--------------------------------*- C++ -*----------------------------------*\
  =========                 |
  \\      /  F ield         | OpenFOAM: The Open Source CFD Toolbox
   \\    /   O peration     | Website:  https://openfoam.org
    \\  /    A nd           | Version:  7
     \\/     M anipulation  |
\*---------------------------------------------------------------------------*/
FoamFile
{
    version     2.0;
    format      ascii;
    class       volScalarField;
    location    "0.045";
    object      T;
}
// * * * * * * * * * * * * * * * * * * * * * * * * * * * * * * * * * * * * * //

dimensions      [0 0 0 1 0 0 0];

internalField   nonuniform List<scalar> 
27
(
300.004601
300.0083899
300.0046009
300.0083877
300.0126168
300.0083877
300.0045972
300.0083861
300.0045972
301.8563582
301.8577546
301.8563526
301.8569575
301.8596226
301.8569568
301.8548269
301.8562065
301.854823
303.4276553
303.4200355
303.4276524
303.4193142
303.4136011
303.4193124
303.4264473
303.4187395
303.4264442
)
;

boundaryField
{
    inlet
    {
        type            fixedValue;
        value           uniform 298;
    }
    outlet
    {
        type            zeroGradient;
    }
    walls
    {
        type            zeroGradient;
    }
    procBoundary0to1
    {
        type            processor;
        value           nonuniform List<scalar> 9(304.6979561 304.6746199 304.6979637 304.6761041 304.6551751 304.676107 304.7010599 304.6773921 304.7010675);
    }
}


// ************************************************************************* //
