/*--------------------------------*- C++ -*----------------------------------*\
  =========                 |
  \\      /  F ield         | OpenFOAM: The Open Source CFD Toolbox
   \\    /   O peration     | Website:  https://openfoam.org
    \\  /    A nd           | Version:  7
     \\/     M anipulation  |
\*---------------------------------------------------------------------------*/
FoamFile
{
    version     2.0;
    format      ascii;
    class       volVectorField;
    location    "0.045";
    object      Uavg;
}
// * * * * * * * * * * * * * * * * * * * * * * * * * * * * * * * * * * * * * //

dimensions      [0 1 -1 0 0 0 0];

internalField   nonuniform List<vector> 
27
(
(1.247113596 5.097823758e-05 -0.0101544709)
(1.247117733 4.110851065e-07 -0.01015447696)
(1.247113604 -5.015441056e-05 -0.01015447219)
(1.24708023 5.094474629e-05 -0.01020050229)
(1.247084371 4.108158509e-07 -0.0102005055)
(1.247080238 -5.012144785e-05 -0.01020050378)
(1.247038587 5.091488577e-05 -0.01026333202)
(1.247042729 4.105357194e-07 -0.01026333476)
(1.247038596 -5.009214243e-05 -0.01026333368)
(1.219447727 5.343866784e-05 -0.01117550231)
(1.219452176 3.854190897e-07 -0.01117550379)
(1.219447717 -5.266581657e-05 -0.01117550318)
(1.219385274 5.339021527e-05 -0.01122394088)
(1.219389727 3.856353369e-07 -0.01122394043)
(1.219385265 -5.261692979e-05 -0.0112239423)
(1.219313944 5.334342957e-05 -0.01129051027)
(1.2193184 3.857182098e-07 -0.01129051067)
(1.219313935 -5.256997115e-05 -0.01129051222)
(1.182585759 5.949115268e-05 -0.01311249704)
(1.182591326 3.504294152e-07 -0.01311248636)
(1.182585711 -5.878761254e-05 -0.01311249729)
(1.182461018 5.940598747e-05 -0.01316652002)
(1.182466595 3.516030486e-07 -0.01316650902)
(1.182460972 -5.870010383e-05 -0.01316652136)
(1.18232526 5.931863167e-05 -0.01324226034)
(1.182330845 3.524651793e-07 -0.01324225291)
(1.182325214 -5.861101941e-05 -0.01324226278)
)
;

boundaryField
{
    inlet
    {
        type            interstitialInletVelocity;
        inletVelocity   uniform (1.23 0 0);
        value           uniform (1.23 0 0);
    }
    outlet
    {
        type            pressureInletOutletVelocity;
        phi             alphaRhoPhi;
        value           nonuniform 0();
    }
    walls
    {
        type            noSlip;
    }
    procBoundary0to1
    {
        type            processor;
        value           nonuniform List<vector> 9((1.159896826 7.089560128e-05 -0.01564598135) (1.159905795 3.256894715e-07 -0.01564594732) (1.159896725 -7.02399009e-05 -0.01564598056) (1.159678684 7.074429652e-05 -0.01570788072) (1.159687676 3.283774812e-07 -0.01570784714) (1.159678586 -7.008327232e-05 -0.01570788193) (1.159442952 7.058392539e-05 -0.01580278253) (1.159451967 3.303211296e-07 -0.01580275945) (1.159442857 -6.991901998e-05 -0.01580278585));
    }
}


// ************************************************************************* //
