/*--------------------------------*- C++ -*----------------------------------*\
  =========                 |
  \\      /  F ield         | OpenFOAM: The Open Source CFD Toolbox
   \\    /   O peration     | Website:  https://openfoam.org
    \\  /    A nd           | Version:  7
     \\/     M anipulation  |
\*---------------------------------------------------------------------------*/
FoamFile
{
    version     2.0;
    format      ascii;
    class       volScalarField;
    location    "0.09";
    object      cpavg;
}
// * * * * * * * * * * * * * * * * * * * * * * * * * * * * * * * * * * * * * //

dimensions      [0 2 -2 -1 0 0 0];

internalField   nonuniform List<scalar> 
54
(
1011.623317
1011.623317
1011.623317
1011.623318
1011.623318
1011.623318
1011.623319
1011.623319
1011.623319
1011.638507
1011.638507
1011.638507
1011.638509
1011.638508
1011.638509
1011.638511
1011.63851
1011.638511
1011.664255
1011.664255
1011.664255
1011.664259
1011.664258
1011.664259
1011.664263
1011.664263
1011.664263
1011.693256
1011.693256
1011.693256
1011.693262
1011.693262
1011.693262
1011.69327
1011.693269
1011.69327
1011.717865
1011.717864
1011.717865
1011.717874
1011.717873
1011.717874
1011.717885
1011.717884
1011.717885
1011.731903
1011.731902
1011.731903
1011.731914
1011.731913
1011.731914
1011.731928
1011.731927
1011.731928
)
;

boundaryField
{
    inlet
    {
        type            calculated;
        value           uniform 1011.338357;
    }
    outlet
    {
        type            calculated;
        value           nonuniform List<scalar> 9(1011.854794 1011.852208 1011.856964 1011.850993 1011.848579 1011.853008 1011.854794 1011.852208 1011.856964);
    }
    walls
    {
        type            calculated;
        value           nonuniform List<scalar> 
72
(
1011.454022
1011.564132
1011.660177
1011.738491
1011.801235
1011.854794
1011.454243
1011.564207
1011.659701
1011.7371
1011.798704
1011.850993
1011.454022
1011.564132
1011.660177
1011.738491
1011.801235
1011.854794
1011.454022
1011.564038
1011.660091
1011.738635
1011.802006
1011.856964
1011.454242
1011.564112
1011.659609
1011.737224
1011.799416
1011.853008
1011.454022
1011.564038
1011.660091
1011.738635
1011.802006
1011.856964
1011.454022
1011.454242
1011.454022
1011.564132
1011.564158
1011.564038
1011.660177
1011.659651
1011.660091
1011.738491
1011.73717
1011.738635
1011.801235
1011.799124
1011.802006
1011.854794
1011.852208
1011.856964
1011.454022
1011.454242
1011.454022
1011.564132
1011.564158
1011.564038
1011.660177
1011.659651
1011.660091
1011.738491
1011.73717
1011.738635
1011.801235
1011.799124
1011.802006
1011.854794
1011.852208
1011.856964
)
;
    }
}


// ************************************************************************* //
