/*--------------------------------*- C++ -*----------------------------------*\
  =========                 |
  \\      /  F ield         | OpenFOAM: The Open Source CFD Toolbox
   \\    /   O peration     | Website:  https://openfoam.org
    \\  /    A nd           | Version:  7
     \\/     M anipulation  |
\*---------------------------------------------------------------------------*/
FoamFile
{
    version     2.0;
    format      ascii;
    class       volScalarField;
    location    "0.09";
    object      kappaavg;
}
// * * * * * * * * * * * * * * * * * * * * * * * * * * * * * * * * * * * * * //

dimensions      [1 1 -3 -1 0 0 0];

internalField   nonuniform List<scalar> 
54
(
0.02726775779
0.02726775773
0.02726775778
0.02726775911
0.02726775906
0.02726775911
0.02726776055
0.02726776049
0.02726776055
0.02728776052
0.0272877603
0.02728776052
0.0272877628
0.02728776259
0.0272877628
0.02728776551
0.02728776529
0.02728776551
0.02732162186
0.02732162131
0.02732162185
0.02732162623
0.02732162569
0.02732162623
0.02732163167
0.02732163112
0.02732163167
0.02735969407
0.02735969307
0.02735969407
0.02735970167
0.02735970067
0.02735970167
0.02735971122
0.02735971022
0.02735971122
0.02739194521
0.02739194373
0.02739194521
0.02739195648
0.027391955
0.02739195648
0.0273919706
0.02739196911
0.0273919706
0.02741032017
0.02741031837
0.02741032017
0.02741033403
0.02741033223
0.02741033402
0.02741035134
0.02741034953
0.02741035134
)
;

boundaryField
{
    inlet
    {
        type            calculated;
        value           uniform 0.02688265352;
    }
    outlet
    {
        type            calculated;
        value           nonuniform List<scalar> 9(0.02756961192 0.02756633157 0.02757236296 0.02756478965 0.02756172603 0.02756734627 0.02756961174 0.02756633137 0.02757236277);
    }
    walls
    {
        type            calculated;
        value           nonuniform List<scalar> 
72
(
0.02704248577
0.02719127329
0.02731852314
0.02742061768
0.02750137877
0.02756961192
0.02704278674
0.02719137418
0.02731789765
0.0274188167
0.02749813846
0.02756478965
0.02704248577
0.02719127329
0.02731852314
0.02742061762
0.02750137862
0.02756961174
0.02704248546
0.02719114737
0.02731841049
0.02742080494
0.02750236595
0.02757236296
0.02704278641
0.02719124635
0.02731777741
0.02741897831
0.02749905082
0.02756734627
0.02704248546
0.02719114737
0.0273184105
0.02742080487
0.02750236581
0.02757236277
0.02704248577
0.02704278656
0.02704248546
0.02719127329
0.02719130873
0.02719114737
0.02731852314
0.02731783268
0.0273184105
0.02742061762
0.02741890762
0.02742080487
0.02750137862
0.02749867635
0.02750236581
0.02756961174
0.02756633137
0.02757236277
0.02704248577
0.02704278656
0.02704248546
0.02719127329
0.02719130873
0.02719114737
0.02731852314
0.02731783268
0.02731841049
0.02742061768
0.02741890769
0.02742080494
0.02750137877
0.02749867649
0.02750236595
0.02756961192
0.02756633157
0.02757236296
)
;
    }
}


// ************************************************************************* //
