/*--------------------------------*- C++ -*----------------------------------*\
  =========                 |
  \\      /  F ield         | OpenFOAM: The Open Source CFD Toolbox
   \\    /   O peration     | Website:  https://openfoam.org
    \\  /    A nd           | Version:  7
     \\/     M anipulation  |
\*---------------------------------------------------------------------------*/
FoamFile
{
    version     2.0;
    format      ascii;
    class       volScalarField;
    location    "0.09";
    object      muavg;
}
// * * * * * * * * * * * * * * * * * * * * * * * * * * * * * * * * * * * * * //

dimensions      [1 -1 -1 0 0 0 0];

internalField   nonuniform List<scalar> 
54
(
1.861179562e-05
1.861179559e-05
1.861179562e-05
1.861179651e-05
1.861179648e-05
1.861179651e-05
1.861179747e-05
1.861179743e-05
1.861179747e-05
1.862519336e-05
1.862519321e-05
1.862519336e-05
1.862519488e-05
1.862519474e-05
1.862519488e-05
1.862519669e-05
1.862519655e-05
1.862519669e-05
1.864787264e-05
1.864787228e-05
1.864787264e-05
1.864787557e-05
1.864787521e-05
1.864787557e-05
1.864787921e-05
1.864787884e-05
1.864787921e-05
1.867337096e-05
1.867337029e-05
1.867337096e-05
1.867337605e-05
1.867337538e-05
1.867337604e-05
1.867338244e-05
1.867338176e-05
1.867338243e-05
1.869496963e-05
1.869496865e-05
1.869496963e-05
1.869497717e-05
1.869497619e-05
1.869497717e-05
1.869498662e-05
1.869498563e-05
1.869498662e-05
1.870727495e-05
1.870727375e-05
1.870727495e-05
1.870728423e-05
1.870728302e-05
1.870728422e-05
1.870729581e-05
1.87072946e-05
1.870729581e-05
)
;

boundaryField
{
    inlet
    {
        type            calculated;
        value           uniform 1.835366622e-05;
    }
    outlet
    {
        type            calculated;
        value           nonuniform List<scalar> 9(1.881391885e-05 1.881172412e-05 1.881575943e-05 1.881069248e-05 1.880864271e-05 1.881240302e-05 1.881391873e-05 1.881172399e-05 1.88157593e-05);
    }
    walls
    {
        type            calculated;
        value           nonuniform List<scalar> 
72
(
1.846086459e-05
1.85605945e-05
1.864584087e-05
1.871420353e-05
1.876826101e-05
1.881391885e-05
1.846106639e-05
1.856066211e-05
1.864542195e-05
1.871299784e-05
1.876609246e-05
1.881069248e-05
1.846086459e-05
1.85605945e-05
1.864584086e-05
1.871420349e-05
1.876826092e-05
1.881391873e-05
1.846086438e-05
1.856051012e-05
1.864576542e-05
1.871432889e-05
1.876892168e-05
1.881575943e-05
1.846106617e-05
1.856057645e-05
1.864534142e-05
1.871310603e-05
1.876670305e-05
1.881240302e-05
1.846086438e-05
1.856051012e-05
1.864576543e-05
1.871432885e-05
1.876892158e-05
1.88157593e-05
1.846086459e-05
1.846106626e-05
1.846086438e-05
1.85605945e-05
1.856061825e-05
1.856051012e-05
1.864584086e-05
1.864537844e-05
1.864576543e-05
1.871420349e-05
1.871305871e-05
1.871432885e-05
1.876826092e-05
1.876645244e-05
1.876892158e-05
1.881391873e-05
1.881172399e-05
1.88157593e-05
1.846086459e-05
1.846106626e-05
1.846086438e-05
1.85605945e-05
1.856061825e-05
1.856051012e-05
1.864584087e-05
1.864537844e-05
1.864576542e-05
1.871420353e-05
1.871305875e-05
1.871432889e-05
1.876826101e-05
1.876645253e-05
1.876892168e-05
1.881391885e-05
1.881172412e-05
1.881575943e-05
)
;
    }
}


// ************************************************************************* //
