/*--------------------------------*- C++ -*----------------------------------*\
  =========                 |
  \\      /  F ield         | OpenFOAM: The Open Source CFD Toolbox
   \\    /   O peration     | Website:  https://openfoam.org
    \\  /    A nd           | Version:  7
     \\/     M anipulation  |
\*---------------------------------------------------------------------------*/
FoamFile
{
    version     2.0;
    format      ascii;
    class       surfaceScalarField;
    location    "0.09";
    object      phi;
}
// * * * * * * * * * * * * * * * * * * * * * * * * * * * * * * * * * * * * * //

dimensions      [0 3 -1 0 0 0 0];

internalField   nonuniform List<scalar> 
117
(
3.576491254e-08
4.938474096e-08
3.061478162e-05
-3.576434248e-08
4.872422586e-08
3.07550375e-05
4.938551246e-08
3.061478066e-05
3.52472102e-08
-2.254918256e-08
3.076862968e-05
-3.524557151e-08
-2.201359952e-08
3.091029424e-05
-2.254957882e-08
3.076862966e-05
3.599419989e-08
3.064083295e-05
-3.599310344e-08
3.078163636e-05
3.064083184e-05
4.050505235e-08
2.682124253e-08
2.902948527e-05
-4.050301215e-08
2.659682915e-08
2.927377518e-05
2.682186139e-08
2.90294857e-05
4.046366968e-08
-5.479221145e-08
2.927384312e-05
-4.046127836e-08
-5.468948326e-08
2.95180943e-05
-5.479255782e-08
2.927384123e-05
4.081677889e-08
2.902685125e-05
-4.081430481e-08
2.927244014e-05
2.902684996e-05
5.148429157e-08
1.134272296e-08
2.70012983e-05
-5.148316988e-08
1.177331784e-08
2.736578006e-05
1.134206401e-08
2.700129478e-05
5.188228423e-08
-8.934103246e-08
2.732512648e-05
-5.188032755e-08
-8.932118894e-08
2.768938132e-05
-8.934160544e-08
2.732512627e-05
5.191988131e-08
2.692349632e-05
-5.191974595e-08
2.729089728e-05
2.692349674e-05
5.600007379e-08
-3.472713266e-08
2.526952241e-05
-5.599829492e-08
-3.348296067e-08
2.576422638e-05
-3.472727227e-08
2.526952242e-05
5.642918234e-08
-1.391511842e-07
2.56318453e-05
-5.642843749e-08
-1.384765974e-07
2.612816311e-05
-1.391515365e-07
2.563184305e-05
5.659360671e-08
2.502783055e-05
-5.659178313e-08
2.552887944e-05
2.502782828e-05
5.040278444e-08
-1.403172505e-07
2.428143769e-05
-5.040411323e-08
-1.373758939e-07
2.48962751e-05
-1.403162836e-07
2.428143532e-05
5.077188222e-08
-2.329150173e-07
2.457688625e-05
-5.077003529e-08
-2.3062595e-07
2.519742906e-05
-2.329146274e-07
2.457688488e-05
5.085621589e-08
2.368320046e-05
-5.085565105e-08
2.431061977e-05
2.368319982e-05
3.416564643e-08
-3.807231425e-07
-3.416495705e-08
-3.738032331e-07
-3.807239819e-07
3.386395808e-08
-4.511769713e-07
-3.386369496e-08
-4.44718667e-07
-4.511771502e-07
3.326319654e-08
-3.326289176e-08
)
;

boundaryField
{
    inlet
    {
        type            calculated;
        value           nonuniform List<scalar> 9(-3.102855299e-05 -3.106290004e-05 -3.102855299e-05 -3.106290004e-05 -3.11013218e-05 -3.106290004e-05 -3.102855299e-05 -3.106290004e-05 -3.102855299e-05);
    }
    outlet
    {
        type            calculated;
        value           nonuniform List<scalar> 9(2.42714575e-05 2.425138286e-05 2.285178391e-05 2.497114816e-05 2.496305977e-05 2.357455149e-05 2.427145739e-05 2.425138094e-05 2.285178229e-05);
    }
    walls
    {
        type            calculated;
        value           uniform 0;
    }
}


// ************************************************************************* //
