/*--------------------------------*- C++ -*----------------------------------*\
  =========                 |
  \\      /  F ield         | OpenFOAM: The Open Source CFD Toolbox
   \\    /   O peration     | Website:  https://openfoam.org
    \\  /    A nd           | Version:  7
     \\/     M anipulation  |
\*---------------------------------------------------------------------------*/
FoamFile
{
    version     2.0;
    format      ascii;
    class       volScalarField::Internal;
    location    "0.09";
    object      steelCloud:hsTrans;
}
// * * * * * * * * * * * * * * * * * * * * * * * * * * * * * * * * * * * * * //

dimensions      [1 2 -2 0 0 0 0];

value           nonuniform List<scalar> 
54
(
0.0002373837754
0.0002378389553
0.0002373837754
0.0002378389553
0.0002383469434
0.0002378389553
0.0002373837754
0.0002378389553
0.0002373837754
0.0002202734114
0.0002207447569
0.0002202734114
0.0002207447569
0.0002212887849
0.0002207447569
0.0002202734114
0.0002207447569
0.0002202734114
0.0001883242551
0.0001886473661
0.0001883242551
0.0001886473661
0.000189010171
0.0001886473661
0.0001883242551
0.0001886473661
0.0001883242551
0.0001510066558
0.0001511708078
0.0001510066558
0.0001511708078
0.0001513492759
0.0001511708077
0.0001510066558
0.0001511708077
0.0001510066558
0.0001195447624
0.00011961469
0.0001195447624
0.00011961469
0.0001196887242
0.00011961469
0.0001195447624
0.00011961469
0.0001195447624
0.0001019471355
0.0001019792186
0.0001019471355
0.0001019792186
0.0001020125035
0.0001019792186
0.0001019471355
0.0001019792186
0.0001019471355
)
;


// ************************************************************************* //
