/*--------------------------------*- C++ -*----------------------------------*\
  =========                 |
  \\      /  F ield         | OpenFOAM: The Open Source CFD Toolbox
   \\    /   O peration     | Website:  https://openfoam.org
    \\  /    A nd           | Version:  7
     \\/     M anipulation  |
\*---------------------------------------------------------------------------*/
FoamFile
{
    version     2.0;
    format      ascii;
    class       volVectorField::Internal;
    location    "0.09";
    object      steelCloud:UTrans;
}
// * * * * * * * * * * * * * * * * * * * * * * * * * * * * * * * * * * * * * //

dimensions      [1 1 -1 0 0 0 0];

value           nonuniform List<vector> 
54
(
(-6.363546415e-08 -3.23872755e-15 -2.919211132e-10)
(-6.375748421e-08 -3.244937762e-15 -2.924808676e-10)
(-6.363546415e-08 -3.23872755e-15 -2.919211132e-10)
(-6.375748421e-08 -3.244937762e-15 -2.924808676e-10)
(-6.389366057e-08 -3.251868459e-15 -2.931055625e-10)
(-6.375748421e-08 -3.244937762e-15 -2.924808676e-10)
(-6.363546415e-08 -3.23872755e-15 -2.919211132e-10)
(-6.375748421e-08 -3.244937762e-15 -2.924808676e-10)
(-6.363546415e-08 -3.23872755e-15 -2.919211132e-10)
(-5.904868921e-08 -3.005283596e-15 -2.708797573e-10)
(-5.917504278e-08 -3.011714362e-15 -2.714593912e-10)
(-5.904868921e-08 -3.005283596e-15 -2.708797573e-10)
(-5.917504278e-08 -3.011714362e-15 -2.714593912e-10)
(-5.932088036e-08 -3.019136767e-15 -2.721284061e-10)
(-5.917504278e-08 -3.011714362e-15 -2.714593912e-10)
(-5.904868921e-08 -3.005283596e-15 -2.708797573e-10)
(-5.917504278e-08 -3.011714362e-15 -2.714593912e-10)
(-5.904868921e-08 -3.005283596e-15 -2.708797573e-10)
(-5.048407947e-08 -2.569387702e-15 -2.315904955e-10)
(-5.057069584e-08 -2.573796043e-15 -2.319878392e-10)
(-5.048407947e-08 -2.569387702e-15 -2.315904955e-10)
(-5.057069584e-08 -2.573796043e-15 -2.319878392e-10)
(-5.066795294e-08 -2.578745944e-15 -2.32433996e-10)
(-5.057069584e-08 -2.573796043e-15 -2.319878392e-10)
(-5.048407947e-08 -2.569387702e-15 -2.315904955e-10)
(-5.057069584e-08 -2.573796043e-15 -2.319878392e-10)
(-5.048407947e-08 -2.569387702e-15 -2.315904955e-10)
(-4.048035135e-08 -2.060247865e-15 -1.85699427e-10)
(-4.052435556e-08 -2.062487459e-15 -1.859012917e-10)
(-4.048035135e-08 -2.060247865e-15 -1.85699427e-10)
(-4.052435556e-08 -2.062487459e-15 -1.859012917e-10)
(-4.057219751e-08 -2.064922376e-15 -1.861207617e-10)
(-4.052435556e-08 -2.062487459e-15 -1.859012917e-10)
(-4.048035135e-08 -2.060247865e-15 -1.85699427e-10)
(-4.052435556e-08 -2.062487459e-15 -1.859012917e-10)
(-4.048035135e-08 -2.060247865e-15 -1.85699427e-10)
(-3.204636218e-08 -1.630999906e-15 -1.470093736e-10)
(-3.206510767e-08 -1.631953958e-15 -1.470953665e-10)
(-3.204636218e-08 -1.630999906e-15 -1.470093736e-10)
(-3.206510767e-08 -1.631953958e-15 -1.470953665e-10)
(-3.208495402e-08 -1.632964038e-15 -1.471864096e-10)
(-3.206510767e-08 -1.631953958e-15 -1.470953665e-10)
(-3.204636218e-08 -1.630999906e-15 -1.470093736e-10)
(-3.206510767e-08 -1.631953958e-15 -1.470953665e-10)
(-3.204636218e-08 -1.630999906e-15 -1.470093736e-10)
(-2.732896667e-08 -1.390908017e-15 -1.253688093e-10)
(-2.733756718e-08 -1.39134574e-15 -1.254082633e-10)
(-2.732896667e-08 -1.390908017e-15 -1.253688093e-10)
(-2.733756718e-08 -1.39134574e-15 -1.254082633e-10)
(-2.734648988e-08 -1.391799861e-15 -1.254491952e-10)
(-2.733756718e-08 -1.39134574e-15 -1.254082633e-10)
(-2.732896667e-08 -1.390908017e-15 -1.253688093e-10)
(-2.733756718e-08 -1.39134574e-15 -1.254082633e-10)
(-2.732896667e-08 -1.390908017e-15 -1.253688093e-10)
)
;


// ************************************************************************* //
