/*--------------------------------*- C++ -*----------------------------------*\
  =========                 |
  \\      /  F ield         | OpenFOAM: The Open Source CFD Toolbox
   \\    /   O peration     | Website:  https://openfoam.org
    \\  /    A nd           | Version:  7
     \\/     M anipulation  |
\*---------------------------------------------------------------------------*/
FoamFile
{
    version     2.0;
    format      ascii;
    class       volScalarField;
    location    "0.075";
    object      cpavg;
}
// * * * * * * * * * * * * * * * * * * * * * * * * * * * * * * * * * * * * * //

dimensions      [0 2 -2 -1 0 0 0];

internalField   nonuniform List<scalar> 
54
(
1011.623347
1011.623347
1011.623347
1011.623348
1011.623348
1011.623348
1011.623349
1011.623349
1011.623349
1011.638526
1011.638526
1011.638526
1011.638528
1011.638528
1011.638528
1011.63853
1011.63853
1011.63853
1011.664255
1011.664254
1011.664255
1011.664258
1011.664258
1011.664258
1011.664262
1011.664262
1011.664262
1011.693229
1011.693228
1011.693229
1011.693235
1011.693234
1011.693235
1011.693243
1011.693242
1011.693243
1011.717812
1011.717811
1011.717812
1011.717821
1011.71782
1011.717821
1011.717832
1011.717831
1011.717832
1011.731834
1011.731833
1011.731834
1011.731845
1011.731844
1011.731845
1011.731859
1011.731858
1011.731859
)
;

boundaryField
{
    inlet
    {
        type            calculated;
        value           uniform 1011.338357;
    }
    outlet
    {
        type            calculated;
        value           nonuniform List<scalar> 9(1011.854476 1011.851901 1011.856652 1011.850684 1011.848281 1011.852704 1011.854476 1011.851901 1011.856653);
    }
    walls
    {
        type            calculated;
        value           nonuniform List<scalar> 
72
(
1011.454076
1011.564235
1011.660294
1011.738538
1011.801111
1011.854476
1011.454296
1011.564311
1011.659819
1011.737152
1011.798591
1011.850684
1011.454076
1011.564235
1011.660294
1011.738538
1011.801111
1011.854476
1011.454075
1011.564141
1011.660208
1011.738682
1011.801882
1011.856652
1011.454296
1011.564216
1011.659728
1011.737277
1011.799304
1011.852704
1011.454075
1011.564141
1011.660208
1011.738682
1011.801882
1011.856653
1011.454076
1011.454296
1011.454075
1011.564235
1011.564262
1011.564141
1011.660294
1011.65977
1011.660208
1011.738538
1011.737222
1011.738682
1011.801111
1011.799011
1011.801882
1011.854476
1011.851901
1011.856653
1011.454076
1011.454296
1011.454075
1011.564235
1011.564262
1011.564141
1011.660294
1011.65977
1011.660208
1011.738538
1011.737222
1011.738682
1011.801111
1011.799011
1011.801882
1011.854476
1011.851901
1011.856652
)
;
    }
}


// ************************************************************************* //
