/*--------------------------------*- C++ -*----------------------------------*\
  =========                 |
  \\      /  F ield         | OpenFOAM: The Open Source CFD Toolbox
   \\    /   O peration     | Website:  https://openfoam.org
    \\  /    A nd           | Version:  7
     \\/     M anipulation  |
\*---------------------------------------------------------------------------*/
FoamFile
{
    version     2.0;
    format      ascii;
    class       volScalarField::Internal;
    location    "0.075";
    object      steelCloud:hsCoeff;
}
// * * * * * * * * * * * * * * * * * * * * * * * * * * * * * * * * * * * * * //

dimensions      [1 2 -2 -1 0 0 0];

value           nonuniform List<scalar> 
54
(
6.81326904e-06
6.826333382e-06
6.813269039e-06
6.826333382e-06
6.840913399e-06
6.826333382e-06
6.813269039e-06
6.826333382e-06
6.81326904e-06
6.322176029e-06
6.335704347e-06
6.322176028e-06
6.335704347e-06
6.351318765e-06
6.335704347e-06
6.322176028e-06
6.335704347e-06
6.322176029e-06
5.405187504e-06
5.414461273e-06
5.405187504e-06
5.414461273e-06
5.424874315e-06
5.414461273e-06
5.405187504e-06
5.414461273e-06
5.405187504e-06
4.334116648e-06
4.338828053e-06
4.334116648e-06
4.338828053e-06
4.343950356e-06
4.338828053e-06
4.334116648e-06
4.338828053e-06
4.334116648e-06
3.431113298e-06
3.433120324e-06
3.431113298e-06
3.433120324e-06
3.435245217e-06
3.433120324e-06
3.431113298e-06
3.433120324e-06
3.431113298e-06
2.926035112e-06
2.926955945e-06
2.926035112e-06
2.926955945e-06
2.927911272e-06
2.926955945e-06
2.926035112e-06
2.926955945e-06
2.926035112e-06
)
;


// ************************************************************************* //
