/*--------------------------------*- C++ -*----------------------------------*\
  =========                 |
  \\      /  F ield         | OpenFOAM: The Open Source CFD Toolbox
   \\    /   O peration     | Website:  https://openfoam.org
    \\  /    A nd           | Version:  7
     \\/     M anipulation  |
\*---------------------------------------------------------------------------*/
FoamFile
{
    version     2.0;
    format      ascii;
    class       volScalarField;
    location    "0.075";
    object      T;
}
// * * * * * * * * * * * * * * * * * * * * * * * * * * * * * * * * * * * * * //

dimensions      [0 0 0 1 0 0 0];

internalField   nonuniform List<scalar> 
54
(
300.017377
300.0211798
300.017377
300.0211774
300.0254217
300.0211774
300.0173731
300.0211756
300.0173731
301.8992037
301.9004833
301.8992037
301.8996547
301.9022042
301.8996547
301.8976097
301.8988652
301.8976097
303.5114003
303.5034812
303.5114001
303.5026573
303.4966629
303.5026573
303.5099724
303.5019573
303.5099724
304.8063179
304.7834955
304.8063165
304.7846489
304.7642275
304.7846475
304.8086941
304.785547
304.8086926
305.8309634
305.7898853
305.8309616
305.7967129
305.7583932
305.7967111
305.8435
305.8014731
305.8434982
306.6967775
306.6355727
306.6967766
306.655173
306.5967294
306.6551711
306.7317754
306.6680919
306.7317743
)
;

boundaryField
{
    inlet
    {
        type            fixedValue;
        value           uniform 298;
    }
    outlet
    {
        type            zeroGradient;
    }
    walls
    {
        type            zeroGradient;
    }
}


// ************************************************************************* //
