/*--------------------------------*- C++ -*----------------------------------*\
  =========                 |
  \\      /  F ield         | OpenFOAM: The Open Source CFD Toolbox
   \\    /   O peration     | Website:  https://openfoam.org
    \\  /    A nd           | Version:  7
     \\/     M anipulation  |
\*---------------------------------------------------------------------------*/
FoamFile
{
    version     2.0;
    format      ascii;
    class       volVectorField;
    location    "0.075";
    object      U;
}
// * * * * * * * * * * * * * * * * * * * * * * * * * * * * * * * * * * * * * //

dimensions      [0 1 -1 0 0 0 0];

internalField   nonuniform List<vector> 
54
(
(1.71279066 0.001659986388 -0.007630667266)
(1.719837812 2.220763687e-08 -0.007675186853)
(1.712790644 -0.00165997778 -0.007630636382)
(1.72023097 0.001636675209 0.003479998941)
(1.72744235 5.419974213e-08 0.003501079431)
(1.720230958 -0.001636635528 0.003480010599)
(1.71354477 0.001654012181 -0.01113216829)
(1.720609332 3.827707568e-08 -0.01113671114)
(1.713544745 -0.001653987889 -0.01113218738)
(1.802712765 0.002978247799 -0.01507955333)
(1.814606775 8.690473433e-08 -0.01513513002)
(1.802712731 -0.002978160776 -0.01507955052)
(1.815170745 0.002956829396 0.008240521513)
(1.82707711 8.920457534e-08 0.008301376829)
(1.815170741 -0.002956739059 0.00824052083)
(1.803724257 0.002949625376 -0.02139784326)
(1.815670599 9.972086164e-08 -0.02144094695)
(1.803724187 -0.002949524542 -0.02139783978)
(1.779413649 0.004183302583 -0.02278630786)
(1.797973212 3.294383344e-08 -0.02283164793)
(1.779413675 -0.004183200366 -0.0227862747)
(1.797201065 0.004173269208 0.01332802531)
(1.815734714 7.431200713e-08 0.01346175048)
(1.797201002 -0.004173124648 0.01332797926)
(1.777804357 0.004114981575 -0.03173684036)
(1.796479902 1.434751604e-09 -0.03183461051)
(1.777804364 -0.004114910933 -0.03173691708)
(1.657835824 0.005066432741 -0.03189969383)
(1.684418008 1.631472239e-08 -0.03192457496)
(1.657835738 -0.005066197074 -0.03189974372)
(1.679825977 0.005049518319 0.01699799915)
(1.706430633 -2.515594835e-08 0.01725396052)
(1.67982596 -0.005049323944 0.01699796078)
(1.649250169 0.004936345644 -0.04276263469)
(1.676085351 3.242498522e-09 -0.04289065814)
(1.649250209 -0.004936123138 -0.04276261693)
(1.550762374 0.005434087013 -0.04377271754)
(1.585446007 -2.551422924e-07 -0.04373749105)
(1.550762309 -0.005433867932 -0.04377254908)
(1.572899007 0.005377319453 0.01644634627)
(1.607767337 -6.403246356e-08 0.01691637606)
(1.572899043 -0.005376910931 0.01644641653)
(1.527342546 0.005181832444 -0.05528937691)
(1.56256213 -1.514368664e-07 -0.05540220751)
(1.527342512 -0.005181507184 -0.05528947582)
(1.505415607 0.005098873076 -0.06015964958)
(1.548459381 -3.405194605e-07 -0.0600152325)
(1.505415454 -0.005098369514 -0.06015962138)
(1.511420664 0.004979520745 0.00627087582)
(1.555140508 -2.698721728e-07 0.007136468226)
(1.511420706 -0.004978945789 0.00627083961)
(1.433548861 0.004710665588 -0.07178149443)
(1.477912236 -3.384570447e-07 -0.0717759441)
(1.433548711 -0.004710143282 -0.07178158632)
)
;

boundaryField
{
    inlet
    {
        type            interstitialInletVelocity;
        inletVelocity   uniform (1.23 0 0);
        value           nonuniform List<vector> 9((1.939284562 0 0) (1.941431252 0 0) (1.939284562 0 0) (1.941431252 0 0) (1.943832612 0 0) (1.941431252 0 0) (1.939284562 0 0) (1.941431252 0 0) (1.939284562 0 0));
    }
    outlet
    {
        type            pressureInletOutletVelocity;
        phi             alphaRhoPhi;
        value           nonuniform List<vector> 9((1.505415607 0.005098873076 -0.06015964958) (1.511420664 0.004979520745 0.00627087582) (1.433548861 0.004710665588 -0.07178149443) (1.548459381 -3.405194605e-07 -0.0600152325) (1.555140508 -2.698721728e-07 0.007136468226) (1.477912236 -3.384570447e-07 -0.0717759441) (1.505415454 -0.005098369514 -0.06015962138) (1.511420706 -0.004978945789 0.00627083961) (1.433548711 -0.004710143282 -0.07178158632));
    }
    walls
    {
        type            noSlip;
    }
}


// ************************************************************************* //
