/*--------------------------------*- C++ -*----------------------------------*\
  =========                 |
  \\      /  F ield         | OpenFOAM: The Open Source CFD Toolbox
   \\    /   O peration     | Website:  https://openfoam.org
    \\  /    A nd           | Version:  7
     \\/     M anipulation  |
\*---------------------------------------------------------------------------*/
FoamFile
{
    version     2.0;
    format      ascii;
    class       volVectorField;
    location    "0.075";
    object      Uavg;
}
// * * * * * * * * * * * * * * * * * * * * * * * * * * * * * * * * * * * * * //

dimensions      [0 1 -1 0 0 0 0];

internalField   nonuniform List<vector> 
54
(
(1.247394097 5.109593361e-05 -0.01021303784)
(1.247398249 4.171831119e-08 -0.01021304253)
(1.247394096 -5.101249687e-05 -0.01021303772)
(1.247361004 5.106215383e-05 -0.01025950845)
(1.247365161 4.184074688e-08 -0.0102595103)
(1.247361004 -5.097847327e-05 -0.01025950839)
(1.247319601 5.103182793e-05 -0.01032284871)
(1.247323758 4.194932774e-08 -0.01032285012)
(1.2473196 -5.094793056e-05 -0.01032284872)
(1.219682438 5.366452874e-05 -0.0112459844)
(1.219686917 4.299317728e-08 -0.01124598394)
(1.219682437 -5.357851066e-05 -0.01124598428)
(1.219620422 5.361370989e-05 -0.0112949126)
(1.219624906 4.313890689e-08 -0.01129491)
(1.219620422 -5.35274013e-05 -0.01129491255)
(1.219549488 5.356457424e-05 -0.01136209984)
(1.219553974 4.326780074e-08 -0.01136209788)
(1.219549487 -5.347800809e-05 -0.01136209986)
(1.182742219 5.993981881e-05 -0.01320548611)
(1.182747851 4.549478639e-08 -0.01320547131)
(1.182742218 -5.984870461e-05 -0.01320548597)
(1.182618255 5.984748313e-05 -0.01326009795)
(1.182623896 4.569892731e-08 -0.01326008229)
(1.182618254 -5.975596212e-05 -0.01326009791)
(1.182483214 5.975328598e-05 -0.01333672362)
(1.182488864 4.587738556e-08 -0.01333671091)
(1.182483213 -5.966140823e-05 -0.01333672368)
(1.159965808 7.168177022e-05 -0.01576820424)
(1.159974904 4.901807523e-08 -0.01576816127)
(1.159965807 -7.158341981e-05 -0.01576820405)
(1.159748918 7.151481653e-05 -0.01583082577)
(1.159758036 4.931654992e-08 -0.01583078214)
(1.159748917 -7.141587213e-05 -0.01583082573)
(1.159514336 7.133982538e-05 -0.01592711378)
(1.159523477 4.957469027e-08 -0.01592707918)
(1.159514335 -7.124036571e-05 -0.01592711389)
(1.157885144 8.544208816e-05 -0.01825773498)
(1.157898857 5.263817791e-08 -0.0182576556)
(1.157885142 -8.533626569e-05 -0.01825773474)
(1.157564801 8.518654681e-05 -0.01832877508)
(1.157578556 5.303417218e-08 -0.01832869376)
(1.157564799 -8.50799376e-05 -0.01832877507)
(1.157217897 8.491673375e-05 -0.01844900026)
(1.157231696 5.336298897e-08 -0.01844893542)
(1.157217896 -8.480946763e-05 -0.01844900046)
(1.163493737 9.427045329e-05 -0.01981014363)
(1.163510517 5.496788308e-08 -0.01981003552)
(1.163493735 -9.415980717e-05 -0.0198101434)
(1.163100268 9.395364038e-05 -0.01988684248)
(1.163117108 5.541296678e-08 -0.01988673065)
(1.163100266 -9.384210954e-05 -0.01988684252)
(1.16267435 9.36191812e-05 -0.02002245264)
(1.162691251 5.5775343e-08 -0.02002236206)
(1.162674348 -9.350692535e-05 -0.02002245294)
)
;

boundaryField
{
    inlet
    {
        type            interstitialInletVelocity;
        inletVelocity   uniform (1.23 0 0);
        value           uniform (1.23 0 0);
    }
    outlet
    {
        type            pressureInletOutletVelocity;
        phi             alphaRhoPhi;
        value           nonuniform List<vector> 9((1.505432288 0.005095251984 -0.06014795648) (1.511423714 0.004976238455 0.006254664674) (1.433563092 0.004707677873 -0.0717640289) (1.548461047 -6.53204811e-07 -0.06000477993) (1.5551279 -4.951596588e-07 0.007119691172) (1.47790958 -6.28996167e-07 -0.07176007466) (1.505431873 -0.005094454828 -0.0601478793) (1.511423858 -0.004975281491 0.006254638642) (1.433562753 -0.004706834077 -0.07176420013));
    }
    walls
    {
        type            noSlip;
    }
}


// ************************************************************************* //
