/*--------------------------------*- C++ -*----------------------------------*\
  =========                 |
  \\      /  F ield         | OpenFOAM: The Open Source CFD Toolbox
   \\    /   O peration     | Website:  https://openfoam.org
    \\  /    A nd           | Version:  7
     \\/     M anipulation  |
\*---------------------------------------------------------------------------*/
FoamFile
{
    version     2.0;
    format      ascii;
    class       surfaceScalarField;
    location    "0.05";
    object      alphaRhoPhi;
}
// * * * * * * * * * * * * * * * * * * * * * * * * * * * * * * * * * * * * * //

dimensions      [1 0 -1 0 0 0 0];

internalField   nonuniform List<scalar> 
54
(
4.929754558e-08
-3.119572617e-08
2.303193937e-05
-4.932613701e-08
-3.011409157e-08
2.347820874e-05
-3.118772803e-08
2.3031897e-05
4.967870986e-08
-1.232673518e-07
2.335719906e-05
-4.968612378e-08
-1.226696212e-07
2.380417116e-05
-1.232707733e-07
2.335720685e-05
4.98278372e-08
2.281028973e-05
-4.984917696e-08
2.326230768e-05
2.281026065e-05
4.697663253e-08
-1.320928814e-07
2.311728079e-05
-4.702045932e-08
-1.294345432e-07
2.370200997e-05
-1.320841309e-07
2.311718338e-05
4.735071216e-08
-2.187039853e-07
2.339679067e-05
-4.736133705e-08
-2.166801276e-07
2.398659185e-05
-2.187090256e-07
2.339679909e-05
4.742542734e-08
2.254431031e-05
-4.745997084e-08
2.314080973e-05
2.254424281e-05
3.262829106e-08
-3.680801413e-07
-3.266410119e-08
-3.617675054e-07
-3.680774737e-07
3.241583918e-08
-4.356416936e-07
-3.242283622e-08
-4.298389119e-07
-4.356470565e-07
3.188031097e-08
-3.190936855e-08
)
;

boundaryField
{
    inlet
    {
        type            calculated;
        value           nonuniform 0();
    }
    outlet
    {
        type            calculated;
        value           nonuniform List<scalar> 9(2.344862134e-05 2.342806207e-05 2.207239427e-05 2.412534587e-05 2.411600899e-05 2.277077139e-05 2.34484845e-05 2.342807131e-05 2.207229031e-05);
    }
    walls
    {
        type            calculated;
        value           uniform 0;
    }
    procBoundary1to0
    {
        type            processor;
        value           nonuniform List<scalar> 9(-2.304821823e-05 -2.334762926e-05 -2.304821222e-05 -2.331297545e-05 -2.361037917e-05 -2.331298326e-05 -2.298158008e-05 -2.328348216e-05 -2.298158055e-05);
    }
}


// ************************************************************************* //
