/*--------------------------------*- C++ -*----------------------------------*\
  =========                 |
  \\      /  F ield         | OpenFOAM: The Open Source CFD Toolbox
   \\    /   O peration     | Website:  https://openfoam.org
    \\  /    A nd           | Version:  7
     \\/     M anipulation  |
\*---------------------------------------------------------------------------*/
FoamFile
{
    version     2.0;
    format      ascii;
    class       volScalarField;
    location    "0.05";
    object      muavg;
}
// * * * * * * * * * * * * * * * * * * * * * * * * * * * * * * * * * * * * * //

dimensions      [1 -1 -1 0 0 0 0];

internalField   nonuniform List<scalar> 
27
(
1.867148304e-05
1.867148228e-05
1.867148306e-05
1.867149024e-05
1.867148948e-05
1.867149026e-05
1.867149894e-05
1.867149817e-05
1.867149896e-05
1.86933557e-05
1.869335453e-05
1.869335572e-05
1.869336626e-05
1.869336509e-05
1.869336628e-05
1.869337909e-05
1.869337792e-05
1.869337912e-05
1.870586644e-05
1.870586498e-05
1.870586647e-05
1.870587938e-05
1.870587792e-05
1.870587941e-05
1.870589516e-05
1.870589369e-05
1.870589519e-05
)
;

boundaryField
{
    inlet
    {
        type            calculated;
        value           nonuniform 0();
    }
    outlet
    {
        type            calculated;
        value           nonuniform List<scalar> 9(1.881918969e-05 1.881645473e-05 1.882177295e-05 1.881503611e-05 1.881247243e-05 1.881743061e-05 1.881919366e-05 1.881645512e-05 1.882177576e-05);
    }
    walls
    {
        type            calculated;
        value           nonuniform List<scalar> 
36
(
1.870854542e-05
1.876479925e-05
1.881918969e-05
1.870731454e-05
1.876236189e-05
1.881503611e-05
1.870854582e-05
1.876480133e-05
1.881919366e-05
1.870870913e-05
1.876563108e-05
1.882177295e-05
1.870746076e-05
1.876313349e-05
1.881743061e-05
1.870870953e-05
1.87656325e-05
1.882177576e-05
1.870854582e-05
1.870739298e-05
1.870870953e-05
1.876480133e-05
1.876280534e-05
1.87656325e-05
1.881919366e-05
1.881645512e-05
1.882177576e-05
1.870854542e-05
1.870739283e-05
1.870870913e-05
1.876479925e-05
1.876280505e-05
1.876563108e-05
1.881918969e-05
1.881645473e-05
1.882177295e-05
)
;
    }
    procBoundary1to0
    {
        type            processor;
        value           nonuniform List<scalar> 9(1.864577989e-05 1.864577949e-05 1.86457799e-05 1.864578413e-05 1.864578373e-05 1.864578414e-05 1.864578917e-05 1.864578876e-05 1.864578918e-05);
    }
}


// ************************************************************************* //
