/*--------------------------------*- C++ -*----------------------------------*\
  =========                 |
  \\      /  F ield         | OpenFOAM: The Open Source CFD Toolbox
   \\    /   O peration     | Website:  https://openfoam.org
    \\  /    A nd           | Version:  7
     \\/     M anipulation  |
\*---------------------------------------------------------------------------*/
FoamFile
{
    version     2.0;
    format      ascii;
    class       volScalarField;
    location    "0.05";
    object      p;
}
// * * * * * * * * * * * * * * * * * * * * * * * * * * * * * * * * * * * * * //

dimensions      [1 -1 -2 0 0 0 0];

internalField   nonuniform List<scalar> 
27
(
101325.8571
101325.8538
101325.8571
101325.7968
101325.7934
101325.7968
101325.744
101325.7404
101325.744
101325.5169
101325.5156
101325.5169
101325.4677
101325.4662
101325.4677
101325.4201
101325.4183
101325.4201
101325.1947
101325.1959
101325.1947
101325.1642
101325.1653
101325.1642
101325.1299
101325.1307
101325.1299
)
;

boundaryField
{
    inlet
    {
        type            zeroGradient;
    }
    outlet
    {
        type            totalPressure;
        rho             rho;
        psi             none;
        gamma           1;
        p0              uniform 101325;
        value           uniform 101325;
    }
    walls
    {
        type            zeroGradient;
    }
    procBoundary1to0
    {
        type            processor;
        value           nonuniform List<scalar> 9(101326.4431 101326.4387 101326.4431 101326.3773 101326.3728 101326.3773 101326.3215 101326.3169 101326.3215);
    }
}


// ************************************************************************* //
