/*--------------------------------*- C++ -*----------------------------------*\
  =========                 |
  \\      /  F ield         | OpenFOAM: The Open Source CFD Toolbox
   \\    /   O peration     | Website:  https://openfoam.org
    \\  /    A nd           | Version:  7
     \\/     M anipulation  |
\*---------------------------------------------------------------------------*/
FoamFile
{
    version     2.0;
    format      ascii;
    class       volScalarField;
    location    "0.05";
    object      pDyn;
}
// * * * * * * * * * * * * * * * * * * * * * * * * * * * * * * * * * * * * * //

dimensions      [1 -1 -2 0 0 0 0];

internalField   nonuniform List<scalar> 
27
(
1.585935264
1.637022495
1.585927745
1.627675599
1.679466914
1.627676562
1.569870814
1.621179393
1.569866087
1.384043556
1.446412581
1.384027065
1.422611618
1.486200903
1.422611998
1.342874254
1.405254859
1.34286279
1.30074457
1.375901947
1.300719773
1.308877295
1.385516715
1.308879312
1.180165822
1.253914601
1.18014882
)
;

boundaryField
{
    inlet
    {
        type            calculated;
        value           nonuniform 0();
    }
    outlet
    {
        type            calculated;
        value           nonuniform List<scalar> 9(1.300742072 1.308875175 1.18016431 1.375899288 1.385514456 1.253912985 1.300717275 1.308877192 1.180147308);
    }
    walls
    {
        type            calculated;
        value           uniform 0;
    }
    procBoundary1to0
    {
        type            processor;
        value           nonuniform List<scalar> 9(1.83392023 1.872246341 1.833920565 1.870461361 1.909093363 1.870462764 1.830863526 1.869393097 1.830864618);
    }
}


// ************************************************************************* //
