/*--------------------------------*- C++ -*----------------------------------*\
  =========                 |
  \\      /  F ield         | OpenFOAM: The Open Source CFD Toolbox
   \\    /   O peration     | Website:  https://openfoam.org
    \\  /    A nd           | Version:  7
     \\/     M anipulation  |
\*---------------------------------------------------------------------------*/
FoamFile
{
    version     2.0;
    format      ascii;
    class       volScalarField;
    location    "0.05";
    object      rho;
}
// * * * * * * * * * * * * * * * * * * * * * * * * * * * * * * * * * * * * * //

dimensions      [1 -3 0 0 0 0 0];

internalField   nonuniform List<scalar> 
27
(
1.153280136
1.153365519
1.15328013
1.153360048
1.153436357
1.153360048
1.153268756
1.153355351
1.153268751
1.149413738
1.149574244
1.149413671
1.14954555
1.14969538
1.149545543
1.149360205
1.149524595
1.149360158
1.145940994
1.146200078
1.145940835
1.146112852
1.146360551
1.146112836
1.145783117
1.146053811
1.145783002
)
;

boundaryField
{
    inlet
    {
        type            calculated;
        value           nonuniform 0();
    }
    outlet
    {
        type            calculated;
        value           nonuniform List<scalar> 9(1.145938792 1.146110995 1.145781648 1.146197862 1.146358681 1.146052333 1.145938632 1.146110979 1.145781533);
    }
    walls
    {
        type            calculated;
        value           nonuniform List<scalar> 
36
(
1.153280136
1.149413738
1.145940994
1.153365519
1.149574244
1.146200078
1.15328013
1.149413671
1.145940835
1.153268756
1.149360205
1.145783117
1.153355351
1.149524595
1.146053811
1.153268751
1.149360158
1.145783002
1.15328013
1.153360048
1.153268751
1.149413671
1.149545543
1.149360158
1.145940835
1.146112836
1.145783002
1.153280136
1.153360048
1.153268756
1.149413738
1.14954555
1.149360205
1.145940994
1.146112852
1.145783117
)
;
    }
    procBoundary1to0
    {
        type            processor;
        value           nonuniform List<scalar> 9(1.158117065 1.158146084 1.158117077 1.158148374 1.15817007 1.158148379 1.158120774 1.158150133 1.158120784);
    }
}


// ************************************************************************* //
