/*--------------------------------*- C++ -*----------------------------------*\
  =========                 |
  \\      /  F ield         | OpenFOAM: The Open Source CFD Toolbox
   \\    /   O peration     | Website:  https://openfoam.org
    \\  /    A nd           | Version:  7
     \\/     M anipulation  |
\*---------------------------------------------------------------------------*/
FoamFile
{
    version     2.0;
    format      ascii;
    class       surfaceScalarField;
    location    "0.05";
    object      rhoPhi;
}
// * * * * * * * * * * * * * * * * * * * * * * * * * * * * * * * * * * * * * //

dimensions      [1 0 -1 0 0 0 0];

internalField   nonuniform List<scalar> 
54
(
6.425541524e-08
-4.066113872e-08
2.909630881e-05
-6.42926819e-08
-3.92648226e-08
2.966684042e-05
-4.065071377e-08
2.909625529e-05
6.477451678e-08
-1.606691526e-07
2.951393374e-05
-6.478418355e-08
-1.599450843e-07
3.008611837e-05
-1.606736124e-07
2.951394358e-05
6.494660805e-08
2.881629826e-05
-6.497442271e-08
2.93940299e-05
2.881626152e-05
5.758638662e-08
-1.619262882e-07
2.787330756e-05
-5.764011176e-08
-1.586891336e-07
2.858104397e-05
-1.619155614e-07
2.787319011e-05
5.805284512e-08
-2.680986604e-07
2.821299559e-05
-5.806587144e-08
-2.656538268e-07
2.892709058e-05
-2.68104839e-07
2.821300576e-05
5.813654251e-08
2.718245717e-05
-5.817888772e-08
2.790432125e-05
2.718237578e-05
3.870948223e-08
-4.366821314e-07
-3.875196656e-08
-4.292186027e-07
-4.366789667e-07
3.845973171e-08
-5.168356614e-07
-3.846803333e-08
-5.099818375e-07
-5.168420239e-07
3.782209521e-08
-3.785656846e-08
)
;

boundaryField
{
    inlet
    {
        type            calculated;
        value           nonuniform 0();
    }
    outlet
    {
        type            calculated;
        value           nonuniform List<scalar> 9(2.781810959e-05 2.779534923e-05 2.618543213e-05 2.862261556e-05 2.861327908e-05 2.701553125e-05 2.781794725e-05 2.779536019e-05 2.618530879e-05);
    }
    walls
    {
        type            calculated;
        value           uniform 0;
    }
    procBoundary1to0
    {
        type            processor;
        value           nonuniform List<scalar> 9(-3.120567911e-05 -3.162713451e-05 -3.120567097e-05 -3.158019182e-05 -3.200113621e-05 -3.15802024e-05 -3.111545571e-05 -3.154023966e-05 -3.111545635e-05);
    }
}


// ************************************************************************* //
