/*--------------------------------*- C++ -*----------------------------------*\
  =========                 |
  \\      /  F ield         | OpenFOAM: The Open Source CFD Toolbox
   \\    /   O peration     | Website:  https://openfoam.org
    \\  /    A nd           | Version:  7
     \\/     M anipulation  |
\*---------------------------------------------------------------------------*/
FoamFile
{
    version     2.0;
    format      ascii;
    class       volVectorField::Internal;
    location    "0.05";
    object      steelCloud:UTrans;
}
// * * * * * * * * * * * * * * * * * * * * * * * * * * * * * * * * * * * * * //

dimensions      [1 1 -1 0 0 0 0];

value           nonuniform List<vector> 
27
(
(-4.05523541e-08 7.377941326e-15 -1.854894726e-10)
(-4.059643658e-08 7.385961524e-15 -1.856911091e-10)
(-4.05523541e-08 7.377941326e-15 -1.854894726e-10)
(-4.059643658e-08 7.385961524e-15 -1.856911091e-10)
(-4.064436363e-08 7.394681189e-15 -1.859103309e-10)
(-4.059643658e-08 7.385961524e-15 -1.856911091e-10)
(-4.05523541e-08 7.377941326e-15 -1.854894726e-10)
(-4.059643658e-08 7.385961524e-15 -1.856911091e-10)
(-4.05523541e-08 7.377941326e-15 -1.854894726e-10)
(-3.210336332e-08 5.840764025e-15 -1.468431627e-10)
(-3.212214215e-08 5.844180573e-15 -1.469290584e-10)
(-3.210336332e-08 5.840764025e-15 -1.468431627e-10)
(-3.212214215e-08 5.844180573e-15 -1.469290584e-10)
(-3.21420238e-08 5.847797766e-15 -1.470199986e-10)
(-3.212214215e-08 5.844180573e-15 -1.469290584e-10)
(-3.210336332e-08 5.840764025e-15 -1.468431627e-10)
(-3.212214215e-08 5.844180573e-15 -1.469290584e-10)
(-3.210336332e-08 5.840764025e-15 -1.468431627e-10)
(-2.737757694e-08 4.980972394e-15 -1.252270656e-10)
(-2.738619275e-08 4.982539922e-15 -1.252664749e-10)
(-2.737757694e-08 4.980972394e-15 -1.252270656e-10)
(-2.738619275e-08 4.982539922e-15 -1.252664749e-10)
(-2.739513131e-08 4.98416617e-15 -1.253073606e-10)
(-2.738619275e-08 4.982539922e-15 -1.252664749e-10)
(-2.737757694e-08 4.980972394e-15 -1.252270656e-10)
(-2.738619275e-08 4.982539922e-15 -1.252664749e-10)
(-2.737757694e-08 4.980972394e-15 -1.252270656e-10)
)
;


// ************************************************************************* //
