/*--------------------------------*- C++ -*----------------------------------*\
  =========                 |
  \\      /  F ield         | OpenFOAM: The Open Source CFD Toolbox
   \\    /   O peration     | Website:  https://openfoam.org
    \\  /    A nd           | Version:  7
     \\/     M anipulation  |
\*---------------------------------------------------------------------------*/
FoamFile
{
    version     2.0;
    format      ascii;
    class       volScalarField::Internal;
    location    "0.05";
    object      steelCloud:hsTrans;
}
// * * * * * * * * * * * * * * * * * * * * * * * * * * * * * * * * * * * * * //

dimensions      [1 2 -2 0 0 0 0];

value           nonuniform List<scalar> 
27
(
0.000151293381
0.0001514578446
0.000151293381
0.0001514578446
0.0001516366516
0.0001514578446
0.000151293381
0.0001514578446
0.000151293381
0.000119771749
0.0001198418094
0.000119771749
0.0001198418094
0.0001199159842
0.0001198418094
0.000119771749
0.0001198418094
0.000119771749
0.0001021407085
0.0001021728525
0.0001021407085
0.0001021728525
0.0001022062006
0.0001021728525
0.0001021407085
0.0001021728525
0.0001021407085
)
;


// ************************************************************************* //
