/*--------------------------------*- C++ -*----------------------------------*\
  =========                 |
  \\      /  F ield         | OpenFOAM: The Open Source CFD Toolbox
   \\    /   O peration     | Website:  https://openfoam.org
    \\  /    A nd           | Version:  7
     \\/     M anipulation  |
\*---------------------------------------------------------------------------*/
FoamFile
{
    version     2.0;
    format      ascii;
    class       volScalarField::Internal;
    location    "0.05";
    object      steelCloud:UCoeff;
}
// * * * * * * * * * * * * * * * * * * * * * * * * * * * * * * * * * * * * * //

dimensions      [1 0 0 0 0 0 0];

value           nonuniform List<scalar> 
27
(
2.222573036e-08
2.224989086e-08
2.222573036e-08
2.224989086e-08
2.227615848e-08
2.224989086e-08
2.222573036e-08
2.224989086e-08
2.222573036e-08
1.759504997e-08
1.760534217e-08
1.759504997e-08
1.760534217e-08
1.761623881e-08
1.760534218e-08
1.759504997e-08
1.760534218e-08
1.759504997e-08
1.500496473e-08
1.500968684e-08
1.500496473e-08
1.500968684e-08
1.501458584e-08
1.500968684e-08
1.500496473e-08
1.500968684e-08
1.500496473e-08
)
;


// ************************************************************************* //
