/*--------------------------------*- C++ -*----------------------------------*\
  =========                 |
  \\      /  F ield         | OpenFOAM: The Open Source CFD Toolbox
   \\    /   O peration     | Website:  https://openfoam.org
    \\  /    A nd           | Version:  7
     \\/     M anipulation  |
\*---------------------------------------------------------------------------*/
FoamFile
{
    version     2.0;
    format      ascii;
    class       volScalarField::Internal;
    location    "0.05";
    object      steelCloud:hsCoeff;
}
// * * * * * * * * * * * * * * * * * * * * * * * * * * * * * * * * * * * * * //

dimensions      [1 2 -2 -1 0 0 0];

value           nonuniform List<scalar> 
27
(
4.334105173e-06
4.338816566e-06
4.334105173e-06
4.338816566e-06
4.343938855e-06
4.338816566e-06
4.334105173e-06
4.338816566e-06
4.334105173e-06
3.431104214e-06
3.433111235e-06
3.431104214e-06
3.433111235e-06
3.435236122e-06
3.433111235e-06
3.431104214e-06
3.433111235e-06
3.431104214e-06
2.926027365e-06
2.926948196e-06
2.926027365e-06
2.926948196e-06
2.927903521e-06
2.926948196e-06
2.926027365e-06
2.926948196e-06
2.926027365e-06
)
;


// ************************************************************************* //
