/*--------------------------------*- C++ -*----------------------------------*\
  =========                 |
  \\      /  F ield         | OpenFOAM: The Open Source CFD Toolbox
   \\    /   O peration     | Website:  https://openfoam.org
    \\  /    A nd           | Version:  7
     \\/     M anipulation  |
\*---------------------------------------------------------------------------*/
FoamFile
{
    version     2.0;
    format      ascii;
    class       volScalarField;
    location    "0.05";
    object      T;
}
// * * * * * * * * * * * * * * * * * * * * * * * * * * * * * * * * * * * * * //

dimensions      [0 0 0 1 0 0 0];

internalField   nonuniform List<scalar> 
27
(
304.746868
304.7242978
304.7468695
304.725572
304.7054015
304.725572
304.749535
304.7266432
304.7495364
305.7709489
305.7282527
305.7709668
305.7357395
305.695891
305.7357413
305.7848983
305.7411638
305.7849108
306.6966046
306.6272832
306.6966471
306.6505234
306.5842674
306.6505277
306.738668
306.6662196
306.7386987
)
;

boundaryField
{
    inlet
    {
        type            fixedValue;
        value           nonuniform 0();
    }
    outlet
    {
        type            zeroGradient;
    }
    walls
    {
        type            zeroGradient;
    }
    procBoundary1to0
    {
        type            processor;
        value           nonuniform List<scalar> 9(303.4758337 303.4682167 303.4758305 303.4674326 303.4617343 303.4674313 303.4744977 303.466791 303.4744951);
    }
}


// ************************************************************************* //
