/*--------------------------------*- C++ -*----------------------------------*\
  =========                 |
  \\      /  F ield         | OpenFOAM: The Open Source CFD Toolbox
   \\    /   O peration     | Website:  https://openfoam.org
    \\  /    A nd           | Version:  7
     \\/     M anipulation  |
\*---------------------------------------------------------------------------*/
FoamFile
{
    version     2.0;
    format      ascii;
    class       volScalarField;
    location    "0.05";
    object      Tavg;
}
// * * * * * * * * * * * * * * * * * * * * * * * * * * * * * * * * * * * * * //

dimensions      [0 0 0 1 0 0 0];

internalField   nonuniform List<scalar> 
27
(
303.9989541
303.9989397
303.9989545
303.999091
303.9990766
303.9990913
303.9992563
303.9992417
303.9992566
304.413082
304.41306
304.4130825
304.4132828
304.4132606
304.4132833
304.4135267
304.4135044
304.4135272
304.6499927
304.6499651
304.6499933
304.6502388
304.650211
304.6502393
304.6505386
304.6505107
304.6505392
)
;

boundaryField
{
    inlet
    {
        type            fixedValue;
        value           nonuniform 0();
    }
    outlet
    {
        type            zeroGradient;
    }
    walls
    {
        type            zeroGradient;
    }
    procBoundary1to0
    {
        type            processor;
        value           nonuniform List<scalar> 9(303.5124057 303.5123981 303.5124059 303.5124863 303.5124787 303.5124865 303.512582 303.5125743 303.5125822);
    }
}


// ************************************************************************* //
