/*--------------------------------*- C++ -*----------------------------------*\
  =========                 |
  \\      /  F ield         | OpenFOAM: The Open Source CFD Toolbox
   \\    /   O peration     | Website:  https://openfoam.org
    \\  /    A nd           | Version:  7
     \\/     M anipulation  |
\*---------------------------------------------------------------------------*/
FoamFile
{
    version     2.0;
    format      ascii;
    class       volVectorField;
    location    "0.05";
    object      U;
}
// * * * * * * * * * * * * * * * * * * * * * * * * * * * * * * * * * * * * * //

dimensions      [0 1 -1 0 0 0 0];

internalField   nonuniform List<vector> 
27
(
(1.657902514 0.005044948847 -0.03184736956)
(1.684399332 -2.685875186e-06 -0.03187589073)
(1.6579012 -0.005043151163 -0.03184666279)
(1.679809341 0.005029056312 0.0168893671)
(1.706326194 -1.793045359e-06 0.01714460939)
(1.679809899 -0.005026358713 0.01688958319)
(1.649294278 0.004916242888 -0.04268191368)
(1.676040455 -2.389159682e-06 -0.04281404321)
(1.649293639 -0.004914153796 -0.0426825365)
(1.550995841 0.005407209691 -0.0436304918)
(1.585548035 -3.972648783e-06 -0.04360570006)
(1.55099144 -0.00540501473 -0.04362943615)
(1.572992219 0.005353786056 0.01623233345)
(1.607728064 -2.487284676e-06 0.01669769394)
(1.572992728 -0.005350100967 0.01623267669)
(1.527497885 0.005160004372 -0.05512006994)
(1.562578773 -3.515542271e-06 -0.05524557657)
(1.527494836 -0.005157354624 -0.05512119449)
(1.505667401 0.005050652425 -0.05986489499)
(1.548530265 -4.181445229e-06 -0.05974397025)
(1.505659073 -0.005047120299 -0.05986434984)
(1.511489594 0.004940013374 0.005923776836)
(1.555021808 -2.870266246e-06 0.006773914274)
(1.511490276 -0.004935149342 0.00592391912)
(1.433692646 0.004676624211 -0.071402432)
(1.477844491 -3.873839072e-06 -0.0714296034)
(1.433686422 -0.004672758003 -0.07140368992)
)
;

boundaryField
{
    inlet
    {
        type            interstitialInletVelocity;
        inletVelocity   nonuniform 0();
        value           nonuniform 0();
    }
    outlet
    {
        type            pressureInletOutletVelocity;
        phi             alphaRhoPhi;
        value           nonuniform List<vector> 9((1.505667401 0.005050652425 -0.05986489499) (1.511489594 0.004940013374 0.005923776836) (1.433692646 0.004676624211 -0.071402432) (1.548530265 -4.181445229e-06 -0.05974397025) (1.555021808 -2.870266246e-06 0.006773914274) (1.477844491 -3.873839072e-06 -0.0714296034) (1.505659073 -0.005047120299 -0.05986434984) (1.511490276 -0.004935149342 0.00592391912) (1.433686422 -0.004672758003 -0.07140368992));
    }
    walls
    {
        type            noSlip;
    }
    procBoundary1to0
    {
        type            processor;
        value           nonuniform List<vector> 9((1.779403194 0.004167277227 -0.02277006088) (1.797917259 -1.174192396e-06 -0.02281668584) (1.77940374 -0.004165617025 -0.02276975934) (1.797151434 0.004157142003 0.01328715156) (1.815636617 -8.491883727e-07 0.01342069732) (1.797151878 -0.004155152108 0.01328707148) (1.777794538 0.004098977118 -0.03169157) (1.796422489 -1.193924067e-06 -0.03179029131) (1.77779511 -0.004097345408 -0.0316918981));
    }
}


// ************************************************************************* //
