/*--------------------------------*- C++ -*----------------------------------*\
  =========                 |
  \\      /  F ield         | OpenFOAM: The Open Source CFD Toolbox
   \\    /   O peration     | Website:  https://openfoam.org
    \\  /    A nd           | Version:  7
     \\/     M anipulation  |
\*---------------------------------------------------------------------------*/
FoamFile
{
    version     2.0;
    format      ascii;
    class       surfaceScalarField;
    location    "0.075";
    object      alphaRhoPhi;
}
// * * * * * * * * * * * * * * * * * * * * * * * * * * * * * * * * * * * * * //

dimensions      [1 0 -1 0 0 0 0];

internalField   nonuniform List<scalar> 
54
(
4.951959122e-08
-3.074115005e-08
2.302579708e-05
-4.951789489e-08
-2.963418884e-08
2.347352715e-05
-3.074115388e-08
2.302579804e-05
4.988552999e-08
-1.230840272e-07
2.335260428e-05
-4.988432296e-08
-1.224559511e-07
2.38010659e-05
-1.230843902e-07
2.335260376e-05
5.004338092e-08
2.28049736e-05
-5.004151494e-08
2.32585377e-05
2.28049727e-05
4.722241726e-08
-1.315739839e-07
2.311022735e-05
-4.722435206e-08
-1.28820765e-07
2.36968725e-05
-1.315728816e-07
2.311022509e-05
4.756753435e-08
-2.183346184e-07
2.33918753e-05
-4.756550373e-08
-2.161937335e-07
2.398364303e-05
-2.183344983e-07
2.339187631e-05
4.764479568e-08
2.253907251e-05
-4.764473468e-08
2.313770961e-05
2.253907237e-05
3.297044859e-08
-3.677996453e-07
-3.297163114e-08
-3.61179458e-07
-3.678002442e-07
3.268413014e-08
-4.357803885e-07
-3.268390847e-08
-4.296201031e-07
-4.357808578e-07
3.209910879e-08
-3.210016173e-08
)
;

boundaryField
{
    inlet
    {
        type            calculated;
        value           nonuniform 0();
    }
    outlet
    {
        type            calculated;
        value           nonuniform List<scalar> 9(2.344519689e-05 2.342731023e-05 2.207133014e-05 2.412413392e-05 2.411759032e-05 2.277242519e-05 2.344519462e-05 2.342731114e-05 2.207132737e-05);
    }
    walls
    {
        type            calculated;
        value           uniform 0;
    }
    procBoundary1to0
    {
        type            processor;
        value           nonuniform List<scalar> 9(-2.304456303e-05 -2.334485156e-05 -2.3044561e-05 -2.331014248e-05 -2.360846211e-05 -2.3310143e-05 -2.297808643e-05 -2.328090672e-05 -2.29780876e-05);
    }
}


// ************************************************************************* //
