/*--------------------------------*- C++ -*----------------------------------*\
  =========                 |
  \\      /  F ield         | OpenFOAM: The Open Source CFD Toolbox
   \\    /   O peration     | Website:  https://openfoam.org
    \\  /    A nd           | Version:  7
     \\/     M anipulation  |
\*---------------------------------------------------------------------------*/
FoamFile
{
    version     2.0;
    format      ascii;
    class       volScalarField;
    location    "0.075";
    object      muavg;
}
// * * * * * * * * * * * * * * * * * * * * * * * * * * * * * * * * * * * * * //

dimensions      [1 -1 -1 0 0 0 0];

internalField   nonuniform List<scalar> 
27
(
1.867334961e-05
1.867334895e-05
1.867334961e-05
1.867335471e-05
1.867335405e-05
1.867335471e-05
1.867336111e-05
1.867336044e-05
1.867336111e-05
1.869492607e-05
1.869492508e-05
1.869492607e-05
1.869493363e-05
1.869493264e-05
1.869493363e-05
1.869494309e-05
1.86949421e-05
1.869494309e-05
1.870721752e-05
1.870721632e-05
1.870721752e-05
1.870722682e-05
1.870722562e-05
1.870722682e-05
1.870723842e-05
1.870723721e-05
1.870723842e-05
)
;

boundaryField
{
    inlet
    {
        type            calculated;
        value           nonuniform 0();
    }
    outlet
    {
        type            calculated;
        value           nonuniform List<scalar> 9(1.881364887e-05 1.881146325e-05 1.881549486e-05 1.881043023e-05 1.880839013e-05 1.881214516e-05 1.881364895e-05 1.881146322e-05 1.881549492e-05);
    }
    walls
    {
        type            calculated;
        value           nonuniform List<scalar> 
36
(
1.871424434e-05
1.876815466e-05
1.881364887e-05
1.871304344e-05
1.876599607e-05
1.881043023e-05
1.871424426e-05
1.876815463e-05
1.881364895e-05
1.871436967e-05
1.876881505e-05
1.881549486e-05
1.871315171e-05
1.876660658e-05
1.881214516e-05
1.871436959e-05
1.876881502e-05
1.881549492e-05
1.871424426e-05
1.871310412e-05
1.871436959e-05
1.876815463e-05
1.876635536e-05
1.876881502e-05
1.881364895e-05
1.881146322e-05
1.881549492e-05
1.871424434e-05
1.871310419e-05
1.871436967e-05
1.876815466e-05
1.876635541e-05
1.876881505e-05
1.881364887e-05
1.881146325e-05
1.881549486e-05
)
;
    }
    procBoundary1to0
    {
        type            processor;
        value           nonuniform List<scalar> 9(1.864787426e-05 1.864787389e-05 1.864787426e-05 1.864787719e-05 1.864787683e-05 1.864787719e-05 1.864788084e-05 1.864788047e-05 1.864788084e-05);
    }
}


// ************************************************************************* //
