/*--------------------------------*- C++ -*----------------------------------*\
  =========                 |
  \\      /  F ield         | OpenFOAM: The Open Source CFD Toolbox
   \\    /   O peration     | Website:  https://openfoam.org
    \\  /    A nd           | Version:  7
     \\/     M anipulation  |
\*---------------------------------------------------------------------------*/
FoamFile
{
    version     2.0;
    format      ascii;
    class       volScalarField;
    location    "0.075";
    object      p;
}
// * * * * * * * * * * * * * * * * * * * * * * * * * * * * * * * * * * * * * //

dimensions      [1 -1 -2 0 0 0 0];

internalField   nonuniform List<scalar> 
27
(
101325.856
101325.8527
101325.856
101325.7958
101325.7923
101325.7958
101325.7429
101325.7393
101325.7429
101325.5163
101325.515
101325.5163
101325.4671
101325.4657
101325.4671
101325.4195
101325.4178
101325.4195
101325.1946
101325.1958
101325.1946
101325.1641
101325.1652
101325.1641
101325.1298
101325.1306
101325.1298
)
;

boundaryField
{
    inlet
    {
        type            zeroGradient;
    }
    outlet
    {
        type            totalPressure;
        rho             rho;
        psi             none;
        gamma           1;
        p0              uniform 101325;
        value           uniform 101325;
    }
    walls
    {
        type            zeroGradient;
    }
    procBoundary1to0
    {
        type            processor;
        value           nonuniform List<scalar> 9(101326.4411 101326.4368 101326.4411 101326.3753 101326.3708 101326.3753 101326.3195 101326.3149 101326.3195);
    }
}


// ************************************************************************* //
