/*--------------------------------*- C++ -*----------------------------------*\
  =========                 |
  \\      /  F ield         | OpenFOAM: The Open Source CFD Toolbox
   \\    /   O peration     | Website:  https://openfoam.org
    \\  /    A nd           | Version:  7
     \\/     M anipulation  |
\*---------------------------------------------------------------------------*/
FoamFile
{
    version     2.0;
    format      ascii;
    class       surfaceScalarField;
    location    "0.075";
    object      phi;
}
// * * * * * * * * * * * * * * * * * * * * * * * * * * * * * * * * * * * * * //

dimensions      [0 3 -1 0 0 0 0];

internalField   nonuniform List<scalar> 
54
(
5.597513403e-08
-3.474874675e-08
2.526974317e-05
-5.597321644e-08
-3.350662767e-08
2.576428278e-05
-3.474875091e-08
2.526974409e-05
5.640442938e-08
-1.391306031e-07
2.56319067e-05
-5.64030645e-08
-1.384583896e-07
2.612805182e-05
-1.391310127e-07
2.5631906e-05
5.656768084e-08
2.502803538e-05
-5.656557145e-08
2.552890824e-05
2.502803426e-05
5.036929189e-08
-1.403435983e-07
2.428169289e-05
-5.037135547e-08
-1.374077183e-07
2.489627898e-05
-1.403424217e-07
2.428169042e-05
5.073887638e-08
-2.328918506e-07
2.457691324e-05
-5.073671022e-08
-2.306092866e-07
2.519719317e-05
-2.32891721e-07
2.457691415e-05
5.082187051e-08
2.36834402e-05
-5.08218053e-08
2.431058222e-05
2.368343995e-05
3.413049107e-08
-3.807526509e-07
-3.413171518e-08
-3.7384871e-07
-3.807532692e-07
3.383169228e-08
-4.511533906e-07
-3.383146272e-08
-4.447137983e-07
-4.511538742e-07
3.323217295e-08
-3.3233263e-08
)
;

boundaryField
{
    inlet
    {
        type            calculated;
        value           nonuniform 0();
    }
    outlet
    {
        type            calculated;
        value           nonuniform List<scalar> 9(2.427185719e-05 2.425147198e-05 2.285215633e-05 2.497121342e-05 2.496279648e-05 2.357454151e-05 2.427185477e-05 2.425147277e-05 2.285215338e-05);
    }
    walls
    {
        type            calculated;
        value           uniform 0;
    }
    procBoundary1to0
    {
        type            processor;
        value           nonuniform List<scalar> 9(-2.700150345e-05 -2.736588361e-05 -2.7001501e-05 -2.732522647e-05 -2.76893728e-05 -2.732522701e-05 -2.692368471e-05 -2.729097927e-05 -2.692368601e-05);
    }
}


// ************************************************************************* //
