/*--------------------------------*- C++ -*----------------------------------*\
  =========                 |
  \\      /  F ield         | OpenFOAM: The Open Source CFD Toolbox
   \\    /   O peration     | Website:  https://openfoam.org
    \\  /    A nd           | Version:  7
     \\/     M anipulation  |
\*---------------------------------------------------------------------------*/
FoamFile
{
    version     2.0;
    format      ascii;
    class       surfaceScalarField;
    location    "0.075";
    object      rhoPhi;
}
// * * * * * * * * * * * * * * * * * * * * * * * * * * * * * * * * * * * * * //

dimensions      [1 0 -1 0 0 0 0];

internalField   nonuniform List<scalar> 
54
(
6.454483401e-08
-4.006863503e-08
2.908854924e-05
-6.454262299e-08
-3.863909243e-08
2.966092479e-05
-4.006864002e-08
2.908855045e-05
6.504418307e-08
-1.604302037e-07
2.950812782e-05
-6.504260927e-08
-1.596664866e-07
3.008219363e-05
-1.604306768e-07
2.950812716e-05
6.522755207e-08
2.880958237e-05
-6.522511992e-08
2.938926618e-05
2.880958123e-05
5.788768225e-08
-1.612901968e-07
2.786480298e-05
-5.789005402e-08
-1.579366303e-07
2.857484896e-05
-1.612888456e-07
2.786480026e-05
5.831867312e-08
-2.676458714e-07
2.82070684e-05
-5.831618355e-08
-2.650574988e-07
2.89235344e-05
-2.676457241e-07
2.820706962e-05
5.840545556e-08
2.717614177e-05
-5.840538079e-08
2.790058297e-05
2.71761416e-05
3.911541034e-08
-4.363493571e-07
-3.911681329e-08
-4.285209147e-07
-4.363500677e-07
3.877804518e-08
-5.170002061e-07
-3.877778218e-08
-5.097222321e-07
-5.170007628e-07
3.808167209e-08
-3.808292128e-08
)
;

boundaryField
{
    inlet
    {
        type            calculated;
        value           nonuniform 0();
    }
    outlet
    {
        type            calculated;
        value           nonuniform List<scalar> 9(2.781404702e-05 2.779445724e-05 2.618416971e-05 2.862117768e-05 2.861515531e-05 2.701749334e-05 2.781404432e-05 2.779445832e-05 2.618416642e-05);
    }
    walls
    {
        type            calculated;
        value           uniform 0;
    }
    procBoundary1to0
    {
        type            processor;
        value           nonuniform List<scalar> 9(-3.120073022e-05 -3.162337179e-05 -3.120072748e-05 -3.157635423e-05 -3.199853786e-05 -3.157635492e-05 -3.111072555e-05 -3.153675091e-05 -3.111072713e-05);
    }
}


// ************************************************************************* //
