/*--------------------------------*- C++ -*----------------------------------*\
  =========                 |
  \\      /  F ield         | OpenFOAM: The Open Source CFD Toolbox
   \\    /   O peration     | Website:  https://openfoam.org
    \\  /    A nd           | Version:  7
     \\/     M anipulation  |
\*---------------------------------------------------------------------------*/
FoamFile
{
    version     2.0;
    format      ascii;
    class       volScalarField::Internal;
    location    "0.075";
    object      steelCloud:UCoeff;
}
// * * * * * * * * * * * * * * * * * * * * * * * * * * * * * * * * * * * * * //

dimensions      [1 0 0 0 0 0 0];

value           nonuniform List<scalar> 
27
(
2.221422553e-08
2.223837352e-08
2.221422553e-08
2.223837352e-08
2.226462754e-08
2.223837352e-08
2.221422553e-08
2.223837352e-08
2.221422553e-08
1.758594214e-08
1.759622902e-08
1.758594215e-08
1.759622902e-08
1.760712002e-08
1.759622902e-08
1.758594215e-08
1.759622902e-08
1.758594215e-08
1.499719762e-08
1.500191729e-08
1.499719762e-08
1.500191729e-08
1.500681376e-08
1.500191729e-08
1.499719762e-08
1.500191729e-08
1.499719762e-08
)
;


// ************************************************************************* //
