/*--------------------------------*- C++ -*----------------------------------*\
  =========                 |
  \\      /  F ield         | OpenFOAM: The Open Source CFD Toolbox
   \\    /   O peration     | Website:  https://openfoam.org
    \\  /    A nd           | Version:  7
     \\/     M anipulation  |
\*---------------------------------------------------------------------------*/
FoamFile
{
    version     2.0;
    format      ascii;
    class       volVectorField::Internal;
    location    "0.075";
    object      steelCloud:UTrans;
}
// * * * * * * * * * * * * * * * * * * * * * * * * * * * * * * * * * * * * * //

dimensions      [1 1 -1 0 0 0 0];

value           nonuniform List<vector> 
27
(
(-4.051026779e-08 -1.838666471e-15 -1.858158761e-10)
(-4.055430451e-08 -1.840665195e-15 -1.860178675e-10)
(-4.051026778e-08 -1.838666471e-15 -1.858158761e-10)
(-4.055430451e-08 -1.840665195e-15 -1.860178675e-10)
(-4.060218182e-08 -1.842838235e-15 -1.862374751e-10)
(-4.055430451e-08 -1.840665195e-15 -1.860178675e-10)
(-4.051026778e-08 -1.838666471e-15 -1.858158761e-10)
(-4.055430451e-08 -1.840665195e-15 -1.860178675e-10)
(-4.051026779e-08 -1.838666471e-15 -1.858158761e-10)
(-3.20700456e-08 -1.455584492e-15 -1.471015608e-10)
(-3.208880493e-08 -1.456435935e-15 -1.471876077e-10)
(-3.20700456e-08 -1.455584492e-15 -1.471015608e-10)
(-3.208880493e-08 -1.456435935e-15 -1.471876077e-10)
(-3.210866595e-08 -1.45733738e-15 -1.472787079e-10)
(-3.208880493e-08 -1.456435935e-15 -1.471876077e-10)
(-3.20700456e-08 -1.455584492e-15 -1.471015608e-10)
(-3.208880493e-08 -1.456435935e-15 -1.471876077e-10)
(-3.20700456e-08 -1.455584492e-15 -1.471015608e-10)
(-2.734916375e-08 -1.241314688e-15 -1.254474261e-10)
(-2.735777063e-08 -1.241705334e-15 -1.254869048e-10)
(-2.734916375e-08 -1.241314688e-15 -1.254474261e-10)
(-2.735777063e-08 -1.241705334e-15 -1.254869048e-10)
(-2.736669991e-08 -1.242110613e-15 -1.255278624e-10)
(-2.735777063e-08 -1.241705334e-15 -1.254869048e-10)
(-2.734916375e-08 -1.241314688e-15 -1.254474261e-10)
(-2.735777063e-08 -1.241705334e-15 -1.254869048e-10)
(-2.734916376e-08 -1.241314688e-15 -1.254474261e-10)
)
;


// ************************************************************************* //
