/*--------------------------------*- C++ -*----------------------------------*\
  =========                 |
  \\      /  F ield         | OpenFOAM: The Open Source CFD Toolbox
   \\    /   O peration     | Website:  https://openfoam.org
    \\  /    A nd           | Version:  7
     \\/     M anipulation  |
\*---------------------------------------------------------------------------*/
FoamFile
{
    version     2.0;
    format      ascii;
    class       volScalarField::Internal;
    location    "0.075";
    object      steelCloud:hsTrans;
}
// * * * * * * * * * * * * * * * * * * * * * * * * * * * * * * * * * * * * * //

dimensions      [1 2 -2 0 0 0 0];

value           nonuniform List<scalar> 
27
(
0.0001510468435
0.0001512110391
0.0001510468435
0.0001512110391
0.0001513895547
0.0001512110391
0.0001510468435
0.0001512110391
0.0001510468435
0.0001195765771
0.0001196465232
0.0001195765771
0.0001196465232
0.0001197205772
0.0001196465232
0.0001195765771
0.0001196465232
0.0001195765771
0.0001019742668
0.0001020063585
0.0001019742668
0.0001020063585
0.0001020396523
0.0001020063585
0.0001019742668
0.0001020063585
0.0001019742669
)
;


// ************************************************************************* //
