/*--------------------------------*- C++ -*----------------------------------*\
  =========                 |
  \\      /  F ield         | OpenFOAM: The Open Source CFD Toolbox
   \\    /   O peration     | Website:  https://openfoam.org
    \\  /    A nd           | Version:  7
     \\/     M anipulation  |
\*---------------------------------------------------------------------------*/
FoamFile
{
    version     2.0;
    format      ascii;
    class       volScalarField;
    location    "0.075";
    object      Tavg;
}
// * * * * * * * * * * * * * * * * * * * * * * * * * * * * * * * * * * * * * //

dimensions      [0 0 0 1 0 0 0];

internalField   nonuniform List<scalar> 
27
(
304.0342523
304.0342396
304.0342522
304.0343492
304.0343366
304.0343492
304.0344708
304.0344581
304.0344708
304.4427647
304.4427461
304.4427647
304.4429084
304.4428897
304.4429084
304.4430882
304.4430694
304.4430882
304.6755169
304.6754941
304.6755169
304.6756936
304.6756708
304.6756936
304.6759141
304.6758911
304.6759141
)
;

boundaryField
{
    inlet
    {
        type            fixedValue;
        value           nonuniform 0();
    }
    outlet
    {
        type            zeroGradient;
    }
    walls
    {
        type            zeroGradient;
    }
    procBoundary1to0
    {
        type            processor;
        value           nonuniform List<scalar> 9(303.55202 303.5520131 303.55202 303.5520758 303.5520689 303.5520758 303.5521451 303.5521382 303.5521451);
    }
}


// ************************************************************************* //
