/*--------------------------------*- C++ -*----------------------------------*\
  =========                 |
  \\      /  F ield         | OpenFOAM: The Open Source CFD Toolbox
   \\    /   O peration     | Website:  https://openfoam.org
    \\  /    A nd           | Version:  7
     \\/     M anipulation  |
\*---------------------------------------------------------------------------*/
FoamFile
{
    version     2.0;
    format      ascii;
    class       surfaceScalarField;
    location    "2";
    object      alphaRhoPhi;
}
// * * * * * * * * * * * * * * * * * * * * * * * * * * * * * * * * * * * * * //

dimensions      [1 0 -1 0 0 0 0];

internalField   nonuniform List<scalar> 
30564
(
2.954893884e-08
4.442756746e-08
2.317663791e-05
4.565566494e-08
4.316862337e-08
2.319133375e-05
2.39915702e-08
4.456061994e-08
2.322770634e-05
3.819738522e-09
4.461272717e-08
2.322615807e-05
3.076655874e-08
4.31339957e-08
2.318051744e-05
1.108507345e-08
4.458767202e-08
2.322568738e-05
-8.010287349e-09
4.458071378e-08
2.322510611e-05
1.941743896e-08
4.315065276e-08
2.318001413e-05
9.736600126e-13
4.459069032e-08
2.322541527e-05
-1.941539203e-08
4.459057919e-08
2.32254151e-05
8.011764718e-09
4.315036892e-08
2.318001326e-05
-1.108420791e-08
4.458035773e-08
2.322510512e-05
-3.076700753e-08
4.458722855e-08
2.322568519e-05
-3.821297374e-09
4.313353461e-08
2.31805143e-05
-2.399388045e-08
4.461230112e-08
2.322615434e-05
-4.565799734e-08
4.456025499e-08
2.322770258e-05
-2.955064998e-08
4.316832042e-08
2.319133048e-05
4.442733406e-08
2.317663531e-05
2.847694012e-08
5.031479149e-08
2.321622541e-05
4.667446089e-08
5.129101963e-08
2.322426448e-05
2.391871828e-08
5.035431574e-08
2.326754007e-05
2.817161141e-09
5.02874755e-08
2.326600095e-05
3.171638675e-08
5.125440198e-08
2.321355397e-05
1.102094145e-08
5.030658263e-08
2.326554531e-05
-9.115498621e-09
5.030631539e-08
2.32649775e-05
2.039913087e-08
5.123377529e-08
2.321297013e-05
9.000960256e-13
5.030040378e-08
2.326525327e-05
-2.039719381e-08
5.030027576e-08
2.326525308e-05
9.116881486e-09
5.123345561e-08
2.321296927e-05
-1.102011801e-08
5.030581499e-08
2.32649765e-05
-3.171682504e-08
5.030600842e-08
2.326554315e-05
-2.818672179e-09
5.125383669e-08
2.32135509e-05
-2.392096557e-08
5.028698644e-08
2.326599728e-05
-4.667674172e-08
5.035392607e-08
2.326753637e-05
-2.847859439e-08
5.129076423e-08
2.322426125e-05
5.031461476e-08
2.321622283e-05
2.971955698e-08
3.464620638e-08
2.32365187e-05
4.560215308e-08
3.4514134e-08
2.325145869e-05
2.401386892e-08
3.470066759e-08
2.328780015e-05
3.926024749e-09
3.468754454e-08
2.328624217e-05
3.068341295e-08
3.449440378e-08
2.32405563e-05
1.109178821e-08
3.468328477e-08
2.328576393e-05
-7.89900368e-09
3.468120006e-08
2.328516275e-05
1.932506791e-08
3.448785759e-08
2.324006973e-05
8.06040374e-13
3.468003415e-08
2.32854895e-05
-1.93232765e-08
3.467986831e-08
2.328548928e-05
7.900298819e-09
3.448740916e-08
2.324006881e-05
-1.109096177e-08
3.468057838e-08
2.328516166e-05
-3.068378169e-08
3.468256135e-08
2.328576175e-05
-3.927421895e-09
3.449374594e-08
2.324055326e-05
-2.401600141e-08
3.468701852e-08
2.328623857e-05
-4.560430695e-08
3.470037354e-08
2.328779654e-05
-2.972115297e-08
3.451404241e-08
2.325145551e-05
3.464629206e-08
2.323651617e-05
2.982808632e-08
1.225793476e-08
2.32431113e-05
4.550915774e-08
1.13697901e-08
2.325800919e-05
2.40018499e-08
1.232166093e-08
2.329442608e-05
4.000515471e-09
1.23503988e-08
2.329287447e-05
3.058860591e-08
1.132607084e-08
2.324711564e-05
1.108531971e-08
1.23241399e-08
2.329239315e-05
-7.811169863e-09
1.231968372e-08
2.329178655e-05
1.923627844e-08
1.133791141e-08
2.324663224e-05
6.769947381e-13
1.232645749e-08
2.329211582e-05
-1.923471849e-08
1.23262992e-08
2.329211556e-05
7.812312947e-09
1.133747875e-08
2.324663123e-05
-1.108451345e-08
1.231908997e-08
2.329178536e-05
-3.058884278e-08
1.232342766e-08
2.329239098e-05
-4.001732e-09
1.132536464e-08
2.324711269e-05
-2.400372329e-08
1.234988354e-08
2.329287105e-05
-4.551110072e-08
1.232137162e-08
2.329442262e-05
-2.98295099e-08
1.1369662e-08
2.325800615e-05
1.225802244e-08
2.324310884e-05
2.836962301e-08
3.92634489e-08
2.319516125e-05
4.666952094e-08
4.025538999e-08
2.320334584e-05
2.389183545e-08
3.92620167e-08
2.324636242e-05
2.748374072e-09
3.920523823e-08
2.324480992e-05
3.174843575e-08
4.026584118e-08
2.319258087e-05
1.100939222e-08
3.922677399e-08
2.324435231e-05
-9.16599188e-09
3.923026175e-08
2.32437784e-05
2.044311192e-08
4.024245591e-08
2.319200114e-05
5.095269665e-13
3.922044552e-08
2.32440602e-05
-2.044185157e-08
3.922028629e-08
2.324405991e-05
9.16692875e-09
4.024197876e-08
2.319200011e-05
-1.100861972e-08
3.922962791e-08
2.324377722e-05
-3.174855123e-08
3.922607024e-08
2.324435029e-05
-2.749297365e-09
4.026525415e-08
2.319257821e-05
-2.389337916e-08
3.920495874e-08
2.324480684e-05
-4.667118077e-08
3.926209279e-08
2.324635927e-05
-2.83708167e-08
4.025584332e-08
2.320334305e-05
3.926417212e-08
2.319515896e-05
2.975539716e-08
1.848279657e-08
2.324154395e-05
4.557409792e-08
1.841469351e-08
2.32565355e-05
2.39979388e-08
1.850749078e-08
2.329283803e-05
3.929758451e-09
1.849877912e-08
2.329127817e-05
3.065449604e-08
1.840060361e-08
2.324564332e-05
1.108147193e-08
1.849549923e-08
2.329080247e-05
-7.884079691e-09
1.849541771e-08
2.329019628e-05
1.930341458e-08
1.839640093e-08
2.324515565e-05
3.888640636e-13
1.849406271e-08
2.329052349e-05
-1.930241978e-08
1.849389194e-08
2.329052315e-05
7.884887266e-09
1.839607378e-08
2.32451546e-05
-1.108067197e-08
1.849504954e-08
2.32901951e-05
-3.065441161e-08
1.849508013e-08
2.329080059e-05
-3.930301179e-09
1.840035074e-08
2.324564098e-05
-2.399905359e-08
1.849881217e-08
2.329127542e-05
-4.557530796e-08
1.850792712e-08
2.329283525e-05
-2.975625673e-08
1.841548793e-08
2.325653293e-05
1.848398407e-08
2.324154176e-05
2.977525014e-08
-9.43616032e-10
2.324015524e-05
4.554510586e-08
-1.972927601e-09
2.325511667e-05
2.399425486e-08
-8.890635829e-10
2.329144005e-05
3.950814566e-09
-8.495549904e-10
2.328988059e-05
3.062896514e-08
-2.007565743e-09
2.324421802e-05
1.108133568e-08
-8.759472799e-10
2.328940251e-05
-7.858714199e-09
-8.797355808e-10
2.32887963e-05
1.927934214e-08
-1.992567713e-09
2.324373332e-05
2.521252879e-13
-8.728700088e-10
2.328912533e-05
-1.927847945e-08
-8.729107051e-10
2.328912502e-05
7.859461862e-09
-1.992656283e-09
2.324373234e-05
-1.108049077e-08
-8.796813114e-10
2.328879518e-05
-3.062862611e-08
-8.759148284e-10
2.328940091e-05
-3.950975797e-09
-2.007334914e-09
2.324421606e-05
-2.399487197e-08
-8.490011485e-10
2.32898783e-05
-4.554585353e-08
-8.880598552e-10
2.329143765e-05
-2.97756432e-08
-1.971420096e-09
2.325511438e-05
-9.417260539e-10
2.324015324e-05
2.839409751e-08
2.573586514e-08
2.319541943e-05
4.663667018e-08
2.675433812e-08
2.320351797e-05
2.388493636e-08
2.571858097e-08
2.324662548e-05
2.770441137e-09
2.566866874e-08
2.324507356e-05
3.171618784e-08
2.677458477e-08
2.319274879e-05
1.100664805e-08
2.569161247e-08
2.324461379e-05
-9.139605414e-09
2.56955425e-08
2.32440406e-05
2.041402158e-08
2.675393271e-08
2.319217091e-05
2.435466253e-13
2.568664619e-08
2.324432216e-05
-2.041317935e-08
2.568676944e-08
2.324432192e-05
9.140458916e-09
2.675432169e-08
2.319217007e-05
-1.10057441e-08
2.569629558e-08
2.324403963e-05
-3.171557236e-08
2.569252411e-08
2.324461252e-05
-2.770199737e-09
2.677574009e-08
2.31927472e-05
-2.388502594e-08
2.567016223e-08
2.324507171e-05
-4.663680086e-08
2.572050114e-08
2.324662346e-05
-2.839405165e-08
2.675651129e-08
2.320351591e-05
2.573837036e-08
2.319541752e-05
2.975364668e-08
6.237504503e-09
2.324022312e-05
4.556904229e-08
6.206683973e-09
2.325520529e-05
2.399350616e-08
6.248654504e-09
2.329151195e-05
3.928143639e-09
6.246828258e-09
2.328994963e-05
3.065037164e-08
6.203228001e-09
2.324431057e-05
1.107997337e-08
6.245577316e-09
2.328947324e-05
-7.883868664e-09
6.245586398e-09
2.328886841e-05
1.930140024e-08
6.20200912e-09
2.324382243e-05
4.019872821e-13
6.245281603e-09
2.328919504e-05
-1.930020152e-08
6.245442759e-09
2.32891949e-05
7.885146967e-09
6.202342577e-09
2.324382193e-05
-1.107881877e-08
6.246208774e-09
2.328886773e-05
-3.064944934e-08
6.246235815e-09
2.328947236e-05
-3.927529843e-09
6.204003455e-09
2.324430939e-05
-2.39931544e-08
6.24781748e-09
2.328994809e-05
-4.556892744e-08
6.249845704e-09
2.329151008e-05
-2.975332393e-08
6.208257498e-09
2.325520321e-05
6.239212088e-09
2.324022099e-05
2.975213161e-08
-1.274833747e-08
2.323970044e-05
4.556868486e-08
-1.38224935e-08
2.325467381e-05
2.399289122e-08
-1.27058283e-08
2.329098499e-05
3.927307459e-09
-1.265963173e-08
2.328942248e-05
3.065036202e-08
-1.384790788e-08
2.324377755e-05
1.107983964e-08
-1.268415984e-08
2.328894494e-05
-7.884289892e-09
-1.268791396e-08
2.328834029e-05
1.930187521e-08
-1.38299695e-08
2.324328937e-05
5.859905694e-13
-1.268007981e-08
2.328866727e-05
-1.930044227e-08
-1.268007412e-08
2.328866725e-05
7.885886899e-09
-1.382987854e-08
2.32432892e-05
-1.107859546e-08
-1.268770601e-08
2.328833991e-05
-3.064929657e-08
-1.268405087e-08
2.328894439e-05
-3.926502449e-09
-1.384782634e-08
2.324377665e-05
-2.399238385e-08
-1.265947967e-08
2.32894211e-05
-4.556825196e-08
-1.270544051e-08
2.329098321e-05
-2.975178572e-08
-1.382184694e-08
2.325467156e-05
-1.274717517e-08
2.323969811e-05
2.841127484e-08
1.515383163e-08
2.319414423e-05
4.661689037e-08
1.619720408e-08
2.320222686e-05
2.388159131e-08
1.512151862e-08
2.324535339e-05
2.786080471e-09
1.507643387e-08
2.324380063e-05
3.169593105e-08
1.622544375e-08
2.319145711e-05
1.100550236e-08
1.510160823e-08
2.324334008e-05
-9.122098527e-09
1.510580643e-08
2.324276734e-05
2.039558972e-08
1.620752217e-08
2.319087935e-05
6.066926717e-13
1.509760625e-08
2.324304873e-05
-2.039405602e-08
1.509754895e-08
2.324304881e-05
9.123744554e-09
1.620736092e-08
2.319087938e-05
-1.100434487e-08
1.510563404e-08
2.324276707e-05
-3.16949279e-08
1.510123368e-08
2.324333958e-05
-2.785283672e-09
1.62249567e-08
2.319145617e-05
-2.38809756e-08
1.507593304e-08
2.324379915e-05
-4.661637296e-08
1.512115731e-08
2.324535141e-05
-2.84106524e-08
1.619712776e-08
2.32022244e-05
1.515420596e-08
2.319414157e-05
2.975411007e-08
-3.53255526e-09
2.323937712e-05
4.556883765e-08
-3.532134431e-09
2.325435372e-05
2.399292546e-08
-3.535148479e-09
2.329066511e-05
3.92776767e-09
-3.532589888e-09
2.328910248e-05
3.064957638e-08
-3.527346064e-09
2.324345825e-05
1.107957742e-08
-3.530699313e-09
2.328862487e-05
-7.884313717e-09
-3.530098289e-09
2.328802048e-05
1.930126948e-08
-3.525660149e-09
2.324296909e-05
5.727947583e-13
-3.529925071e-09
2.328834685e-05
-1.929981297e-08
-3.530032374e-09
2.328834694e-05
7.885908866e-09
-3.525956399e-09
2.324296914e-05
-1.107862517e-08
-3.530532324e-09
2.328802006e-05
-3.064875059e-08
-3.531358563e-09
2.328862418e-05
-3.927097223e-09
-3.528171271e-09
2.324345704e-05
-2.399234699e-08
-3.533461694e-09
2.328910067e-05
-4.556825993e-08
-3.535929725e-09
2.329066276e-05
-2.975333246e-08
-3.532672116e-09
2.325435087e-05
-3.532707334e-09
2.323937407e-05
2.975201488e-08
-2.207485024e-08
2.323922474e-05
4.55728149e-08
-2.313022424e-08
2.32542061e-05
2.399394702e-08
-2.204863886e-08
2.329051458e-05
3.925808516e-09
-2.199810796e-08
2.32889517e-05
3.065309532e-08
-2.314864075e-08
2.3243311e-05
1.107997052e-08
-2.201972828e-08
2.328847444e-05
-7.88750859e-09
-2.202264729e-08
2.328787038e-05
1.930421653e-08
-2.312724077e-08
2.324282099e-05
4.78705384e-13
-2.201397131e-08
2.328819601e-05
-1.930294374e-08
-2.201409915e-08
2.328819606e-05
7.888896483e-09
-2.312756683e-08
2.324282091e-05
-1.107926673e-08
-2.202313788e-08
2.328786972e-05
-3.065252736e-08
-2.202044664e-08
2.328847345e-05
-3.925331031e-09
-2.314950485e-08
2.324330947e-05
-2.399348426e-08
-2.19990182e-08
2.328894954e-05
-4.557223848e-08
-2.204947572e-08
2.329051189e-05
-2.975113178e-08
-2.313083417e-08
2.325420292e-05
-2.20751453e-08
2.323922143e-05
2.838891258e-08
5.232870517e-09
2.319473022e-05
4.664924663e-08
6.209390116e-09
2.320282133e-05
2.388711226e-08
5.184380513e-09
2.324594369e-05
2.763629828e-09
5.143584487e-09
2.324439228e-05
3.172568522e-08
6.242453807e-09
2.319205653e-05
1.100705981e-08
5.171205067e-09
2.324393259e-05
-9.149850564e-09
5.175967634e-09
2.32433613e-05
2.042299438e-08
6.228253799e-09
2.319147564e-05
3.678195272e-13
5.169054143e-09
2.324364042e-05
-2.042188185e-08
5.168975634e-09
2.324364043e-05
9.151023868e-09
6.227929127e-09
2.319147541e-05
-1.100657706e-08
5.175552025e-09
2.324336038e-05
-3.172534073e-08
5.170529703e-09
2.324393131e-05
-2.763322437e-09
6.241670546e-09
2.319205471e-05
-2.388676289e-08
5.142716787e-09
2.324438984e-05
-4.664866758e-08
5.183579347e-09
2.324594076e-05
-2.838796485e-08
6.208721963e-09
2.320281799e-05
5.232385545e-09
2.319472677e-05
2.976915367e-08
-1.279187087e-08
2.323867046e-05
4.555102972e-08
-1.280009489e-08
2.325363684e-05
2.399638431e-08
-1.281133878e-08
2.328995311e-05
3.949741856e-09
-1.280253519e-08
2.328839147e-05
3.063427147e-08
-1.278081602e-08
2.324273659e-05
1.108297829e-08
-1.279675471e-08
2.328791252e-05
-7.863201427e-09
-1.279465536e-08
2.328730823e-05
1.928367102e-08
-1.277561091e-08
2.324224919e-05
3.399410925e-13
-1.279382714e-08
2.328763548e-05
-1.928270987e-08
-1.279397699e-08
2.328763541e-05
7.864286884e-09
-1.277585183e-08
2.32422489e-05
-1.108271199e-08
-1.279504247e-08
2.328730703e-05
-3.063406967e-08
-1.279730646e-08
2.328791103e-05
-3.949604817e-09
-1.278149183e-08
2.324273454e-05
-2.399611373e-08
-1.280323079e-08
2.32883889e-05
-4.555048246e-08
-1.281199137e-08
2.328995009e-05
-2.976822112e-08
-1.280075954e-08
2.325363342e-05
-1.279221451e-08
2.323866704e-05
2.976154474e-08
-3.900560793e-08
2.324685749e-05
4.559087194e-08
-4.005645309e-08
2.326182672e-05
2.400574108e-08
-3.900825369e-08
2.329817529e-05
3.932782656e-09
-3.895874598e-08
2.329661852e-05
3.06638877e-08
-4.007282142e-08
2.325094943e-05
1.108503025e-08
-3.897868491e-08
2.329614483e-05
-7.888487052e-09
-3.898041114e-08
2.329554154e-05
1.93090793e-08
-4.005097128e-08
2.325046087e-05
2.705022795e-13
-3.89722851e-08
2.329586717e-05
-1.930808962e-08
-3.897234971e-08
2.329586708e-05
7.889492844e-09
-4.005116249e-08
2.325046048e-05
-1.108484126e-08
-3.898070426e-08
2.329554016e-05
-3.06638064e-08
-3.897911221e-08
2.329614317e-05
-3.932713465e-09
-4.007331918e-08
2.32509473e-05
-2.400552441e-08
-3.895922669e-08
2.329661597e-05
-4.559045156e-08
-3.900879393e-08
2.329817237e-05
-2.976041169e-08
-4.005668124e-08
2.326182364e-05
-3.900594619e-08
2.324685421e-05
2.837940272e-08
-1.460813437e-08
2.319762238e-05
4.665837515e-08
-1.366590587e-08
2.320572442e-05
2.390036971e-08
-1.471427894e-08
2.324885149e-05
2.778700527e-09
-1.475488099e-08
2.324730141e-05
3.173306406e-08
-1.360239603e-08
2.319495823e-05
1.101643502e-08
-1.472756966e-08
2.324684397e-05
-9.143798412e-09
-1.472066849e-08
2.324627712e-05
2.042313156e-08
-1.361691145e-08
2.31943767e-05
2.843412007e-13
-1.472778676e-08
2.324655274e-05
-2.042214854e-08
-1.47278785e-08
2.324655265e-05
9.14479557e-09
-1.361704861e-08
2.319437622e-05
-1.101627533e-08
-1.472081942e-08
2.324627565e-05
-3.173302439e-08
-1.472784877e-08
2.324684219e-05
-2.778642222e-09
-1.360271336e-08
2.319495605e-05
-2.390028865e-08
-1.475522987e-08
2.324729883e-05
-4.665770079e-08
-1.471437877e-08
2.32488488e-05
-2.837847701e-08
-1.366612978e-08
2.320572129e-05
-1.460800401e-08
2.319761959e-05
2.97050135e-08
2.320607275e-05
4.549113174e-08
2.322092829e-05
2.395448453e-08
2.325719621e-05
3.922447404e-09
2.325564701e-05
3.060063398e-08
2.321008839e-05
1.106275297e-08
2.325517477e-05
-7.871378409e-09
2.325457615e-05
1.92703947e-08
2.320960471e-05
2.618199182e-13
2.325490249e-05
-1.926929683e-08
2.325490238e-05
7.872460881e-09
2.320960424e-05
-1.106261337e-08
2.325457455e-05
-3.060057656e-08
2.325517293e-05
-3.922395473e-09
2.321008608e-05
-2.39541437e-08
2.325564439e-05
-4.549063924e-08
2.325719323e-05
-2.970372884e-08
2.322092539e-05
2.320606982e-05
4.222097829e-08
5.702904081e-08
2.307738204e-05
5.906327875e-08
5.586296907e-08
2.311862316e-05
3.859717337e-08
5.71688701e-08
2.319099868e-05
1.775170776e-08
5.721366441e-08
2.318978528e-05
3.813186107e-08
5.581180536e-08
2.310432105e-05
1.829606959e-08
5.720855945e-08
2.318830997e-05
-8.890846844e-10
5.720610735e-08
2.318708006e-05
1.935750082e-08
5.583115687e-08
2.31039312e-05
7.099592781e-13
5.72055319e-08
2.318756106e-05
-1.935614677e-08
5.720541101e-08
2.318756038e-05
8.899419055e-10
5.583090651e-08
2.310392871e-05
-1.82960306e-08
5.720577631e-08
2.318707692e-05
-3.813302621e-08
5.720816721e-08
2.318830433e-05
-1.775393393e-08
5.581141394e-08
2.310431372e-05
-3.859991622e-08
5.721332672e-08
2.31897773e-05
-5.906569583e-08
5.71686053e-08
2.319099141e-05
-4.222250718e-08
5.586277877e-08
2.311861751e-05
5.702892336e-08
2.307737813e-05
4.156560678e-08
7.105833027e-08
2.316062471e-05
5.957133937e-08
7.150413531e-08
2.319061231e-05
3.840286619e-08
7.116368909e-08
2.327470885e-05
1.70133814e-08
7.110617476e-08
2.327349334e-05
3.858996128e-08
7.136999507e-08
2.317641478e-05
1.819658304e-08
7.108414914e-08
2.327205846e-05
-1.541703929e-09
7.105713731e-08
2.327085967e-05
1.992553203e-08
7.136016262e-08
2.317596873e-05
6.245083676e-13
7.108151711e-08
2.327129677e-05
-1.992424813e-08
7.108140321e-08
2.327129608e-05
1.542541052e-09
7.135989084e-08
2.31759662e-05
-1.819655853e-08
7.105667576e-08
2.327085665e-05
-3.859110268e-08
7.108364981e-08
2.327205296e-05
-1.701554443e-08
7.136955269e-08
2.317640765e-05
-3.840553688e-08
7.110584469e-08
2.327348558e-05
-5.957369454e-08
7.11635023e-08
2.327470176e-05
-4.156707921e-08
7.150409504e-08
2.319060679e-05
7.105841125e-08
2.316062088e-05
4.24294438e-08
5.732826467e-08
2.320781337e-05
5.890406931e-08
5.695414072e-08
2.324952866e-05
3.863608102e-08
5.742591463e-08
2.332180089e-05
1.798957625e-08
5.741125728e-08
2.332057884e-05
3.79306243e-08
5.690606824e-08
2.323507457e-05
1.83055125e-08
5.739319704e-08
2.331907516e-05
-6.792350012e-10
5.738842541e-08
2.331781092e-05
1.914459687e-08
5.690007676e-08
2.323470058e-05
5.517791755e-13
5.738998456e-08
2.331831939e-05
-1.914341373e-08
5.738982898e-08
2.331831871e-05
6.799604368e-10
5.689966601e-08
2.323469817e-05
-1.830544156e-08
5.738786342e-08
2.33178077e-05
-3.793163876e-08
5.739260883e-08
2.331906977e-05
-1.79915857e-08
5.690560584e-08
2.323506768e-05
-3.863858531e-08
5.741104284e-08
2.332057139e-05
-5.890627926e-08
5.74259789e-08
2.332179409e-05
-4.2430814e-08
5.695445473e-08
2.324952336e-05
5.732874702e-08
2.320780972e-05
4.253453899e-08
3.372799559e-08
2.322417107e-05
5.886866394e-08
3.273732361e-08
2.326588648e-05
3.862279586e-08
3.391405064e-08
2.333817873e-05
1.801304134e-08
3.392268028e-08
2.333696804e-05
3.787478381e-08
3.269096823e-08
2.325146439e-05
1.828631478e-08
3.390836934e-08
2.333546166e-05
-6.466209409e-10
3.391632118e-08
2.33341864e-05
1.909822053e-08
3.269122297e-08
2.3251091e-05
4.403143494e-13
3.389950364e-08
2.33346986e-05
-1.909721661e-08
3.389933241e-08
2.333469787e-05
6.472681376e-10
3.26907878e-08
2.325108859e-05
-1.828618131e-08
3.391579506e-08
2.333418322e-05
-3.787560697e-08
3.390782953e-08
2.333545656e-05
-1.801476074e-08
3.269059038e-08
2.325145802e-05
-3.862499341e-08
3.392262742e-08
2.33369612e-05
-5.887060718e-08
3.39143326e-08
2.333817252e-05
-4.253574502e-08
3.273787687e-08
2.326588162e-05
3.37287678e-08
2.32241677e-05
4.140843773e-08
5.309750152e-08
2.313437725e-05
5.943133243e-08
5.359194192e-08
2.316446279e-05
3.833968129e-08
5.307778673e-08
2.324828511e-05
1.697834367e-08
5.303631774e-08
2.32470527e-05
3.854829362e-08
5.354921365e-08
2.315014785e-05
1.817829731e-08
5.302054042e-08
2.324560519e-05
-1.530058119e-09
5.300389193e-08
2.324439384e-05
1.990840343e-08
5.353635344e-08
2.314971212e-05
2.84434424e-13
5.30211264e-08
2.32448411e-05
-1.990762947e-08
5.302097837e-08
2.324484036e-05
1.530654838e-09
5.353598656e-08
2.314970965e-05
-1.817809345e-08
5.300341655e-08
2.324439097e-05
-3.854888137e-08
5.302011936e-08
2.324560061e-05
-1.697967374e-08
5.354909655e-08
2.315014222e-05
-3.834148022e-08
5.303659467e-08
2.324704665e-05
-5.943294759e-08
5.307855929e-08
2.324827961e-05
-4.140940127e-08
5.359309003e-08
2.316445846e-05
5.30989416e-08
2.313437425e-05
4.250417859e-08
3.12574755e-08
2.322087371e-05
5.885104623e-08
3.110342843e-08
2.326267152e-05
3.860205877e-08
3.131721954e-08
2.333484227e-05
1.799040107e-08
3.130290035e-08
2.333361815e-05
3.786981117e-08
3.1076146e-08
2.324823208e-05
1.827960767e-08
3.129239331e-08
2.333211578e-05
-6.596272504e-10
3.129134254e-08
2.333084275e-05
1.910327908e-08
3.106822232e-08
2.324785555e-05
1.654998913e-13
3.128948443e-08
2.33313528e-05
-1.910267752e-08
3.12893889e-08
2.33313521e-05
6.601584091e-10
3.106805741e-08
2.324785336e-05
-1.82792651e-08
3.129119955e-08
2.333084e-05
-3.787001957e-08
3.12924003e-08
2.333211183e-05
-1.79912731e-08
3.107645844e-08
2.324822727e-05
-3.860328631e-08
3.13036859e-08
2.333361308e-05
-5.885219724e-08
3.131848577e-08
2.33348376e-05
-4.250479519e-08
3.110513451e-08
2.326266779e-05
3.12596293e-08
2.322087108e-05
4.250322658e-08
1.076044659e-08
2.321814281e-05
5.883331089e-08
9.969361367e-09
2.325991493e-05
3.859838388e-08
1.08843825e-08
2.333210233e-05
1.799608412e-08
1.090315764e-08
2.333087748e-05
3.785857929e-08
9.958945957e-09
2.324546775e-05
1.827846024e-08
1.089680105e-08
2.332937323e-05
-6.493127892e-10
1.090866503e-08
2.332810155e-05
1.909355844e-08
9.959560885e-09
2.324509392e-05
9.199260485e-14
1.08911265e-08
2.332861202e-05
-1.909302117e-08
1.089114509e-08
2.332861137e-05
6.49892636e-10
9.959690151e-09
2.324509198e-05
-1.827788648e-08
1.090900914e-08
2.332809913e-05
-3.785842009e-08
1.089734787e-08
2.33293699e-05
-1.799642237e-08
9.959824229e-09
2.324546384e-05
-3.859906638e-08
1.090453857e-08
2.333087332e-05
-5.88339316e-08
1.088633392e-08
2.333209849e-05
-4.25033719e-08
9.971808618e-09
2.325991179e-05
1.076337437e-08
2.321814058e-05
4.140862399e-08
3.03833007e-08
2.313438164e-05
5.942752151e-08
3.102095854e-08
2.316444157e-05
3.832822938e-08
3.032710362e-08
2.324827634e-05
1.696661904e-08
3.029464111e-08
2.324703826e-05
3.854284241e-08
3.100264299e-08
2.315012355e-05
1.817148252e-08
3.028724395e-08
2.324558947e-05
-1.535441678e-09
3.027264258e-08
2.324437814e-05
1.990814228e-08
3.099361393e-08
2.314968798e-05
1.272038409e-13
3.029015013e-08
2.324482599e-05
-1.990749365e-08
3.029041091e-08
2.324482552e-05
1.536232926e-09
3.099432864e-08
2.31496863e-05
-1.81706382e-08
3.027384463e-08
2.324437629e-05
-3.854229725e-08
3.028881464e-08
2.324558692e-05
-1.696639507e-08
3.10046349e-08
2.315012061e-05
-3.832827152e-08
3.029705426e-08
2.324703506e-05
-5.942751092e-08
3.032995743e-08
2.324827332e-05
-4.140828136e-08
3.102409958e-08
2.316443894e-05
3.038671433e-08
2.313437959e-05
4.249135639e-08
1.092017191e-08
2.321718885e-05
5.885297792e-08
1.086536964e-08
2.325899349e-05
3.859375818e-08
1.094394992e-08
2.333114866e-05
1.797486746e-08
1.094037015e-08
2.332991738e-05
3.78738561e-08
1.086118325e-08
2.324454779e-05
1.827663737e-08
1.093780544e-08
2.33284147e-05
-6.695629598e-10
1.093797751e-08
2.332714398e-05
1.911135423e-08
1.085888319e-08
2.324417087e-05
4.138419414e-13
1.093741596e-08
2.332765349e-05
-1.911014683e-08
1.093764428e-08
2.332765307e-05
6.708885818e-10
1.085948746e-08
2.324416975e-05
-1.827530638e-08
1.093895216e-08
2.332714246e-05
-3.787282898e-08
1.093899197e-08
2.332841267e-05
-1.797421174e-08
1.086258873e-08
2.324454526e-05
-3.859339889e-08
1.094203691e-08
2.332991444e-05
-5.88527404e-08
1.094590807e-08
2.333114559e-05
-4.249090499e-08
1.08675957e-08
2.325899051e-05
1.092266477e-08
2.321718607e-05
4.248345661e-08
-7.952521892e-09
2.321608395e-05
5.885644247e-08
-8.729608668e-09
2.325789024e-05
3.859330853e-08
-7.85407421e-09
2.333004072e-05
1.796868565e-08
-7.825359016e-09
2.332880764e-05
3.787872816e-08
-8.719530789e-09
2.324344324e-05
1.827650508e-08
-7.824538903e-09
2.332730463e-05
-6.73511038e-10
-7.810985498e-09
2.332603425e-05
1.911691273e-08
-8.713961725e-09
2.324306675e-05
6.457048463e-13
-7.827947776e-09
2.33265437e-05
-1.911525571e-08
-7.827872369e-09
2.332654356e-05
6.752145651e-10
-8.713762714e-09
2.324306602e-05
-1.827490615e-08
-7.810677768e-09
2.332603314e-05
-3.787747734e-08
-7.824300858e-09
2.332730293e-05
-1.796783439e-08
-8.719303125e-09
2.32434409e-05
-3.859278166e-08
-7.825010746e-09
2.332880467e-05
-5.885610094e-08
-7.853447164e-09
2.333003736e-05
-4.248300951e-08
-8.728595243e-09
2.325788666e-05
-7.950924873e-09
2.321608056e-05
4.142853395e-08
1.297976278e-08
2.31317775e-05
5.940879796e-08
1.369275224e-08
2.316181831e-05
3.832529706e-08
1.289550149e-08
2.32456815e-05
1.698192874e-08
1.28702419e-08
2.324444287e-05
3.852230862e-08
1.369111076e-08
2.314750079e-05
1.816975517e-08
1.287086972e-08
2.324299212e-05
-1.521270815e-09
1.285864252e-08
2.324178365e-05
1.989005916e-08
1.368673938e-08
2.31470622e-05
7.104780541e-13
1.28755842e-08
2.324222936e-05
-1.988828567e-08
1.287554168e-08
2.32422293e-05
1.523029196e-09
1.368659437e-08
2.314706178e-05
-1.816823174e-08
1.285838599e-08
2.324178282e-05
-3.852113578e-08
1.287039578e-08
2.324299059e-05
-1.698109037e-08
1.369049566e-08
2.314749849e-05
-3.832470012e-08
1.286964015e-08
2.324443983e-05
-5.940831696e-08
1.289510963e-08
2.324567795e-05
-4.142789751e-08
1.36927661e-08
2.31618144e-05
1.298040168e-08
2.313177357e-05
4.248776858e-08
-5.282291135e-09
2.321514552e-05
5.885986111e-08
-5.288208949e-09
2.32569566e-05
3.859433988e-08
-5.289138925e-09
2.332910931e-05
1.796893934e-08
-5.283805664e-09
2.332787629e-05
3.78796001e-08
-5.277898686e-09
2.324251121e-05
1.827667899e-08
-5.279352836e-09
2.332637288e-05
-6.749100634e-10
-5.277470187e-09
2.332510312e-05
1.911756346e-08
-5.274638425e-09
2.324213293e-05
6.725877672e-13
-5.277631246e-09
2.332561181e-05
-1.911587827e-08
-5.277747913e-09
2.332561178e-05
6.765160155e-10
-5.275010721e-09
2.324213259e-05
-1.827539585e-08
-5.278065196e-09
2.332510218e-05
-3.787867321e-08
-5.280242063e-09
2.332637123e-05
-1.796826435e-08
-5.278968857e-09
2.324250872e-05
-3.859379565e-08
-5.284916518e-09
2.332787299e-05
-5.885929037e-08
-5.290065131e-09
2.332910543e-05
-4.248694945e-08
-5.288746546e-09
2.325695226e-05
-5.282247841e-09
2.321514109e-05
4.248762e-08
-2.308592018e-08
2.321453491e-05
5.886425263e-08
-2.381593144e-08
2.325635116e-05
3.859598284e-08
-2.301398685e-08
2.332850164e-05
1.796902138e-08
-2.297932728e-08
2.332726845e-05
3.788304349e-08
-2.379118822e-08
2.32419048e-05
1.827796325e-08
-2.296964284e-08
2.332576462e-05
-6.771812693e-10
-2.295232695e-08
2.332449534e-05
1.911978683e-08
-2.378078721e-08
2.324152512e-05
5.392394309e-13
-2.297085314e-08
2.332500338e-05
-1.911837971e-08
-2.297100182e-08
2.33250033e-05
6.78503217e-10
-2.378121546e-08
2.324152466e-05
-1.827703621e-08
-2.295300426e-08
2.332449414e-05
-3.788244063e-08
-2.297059823e-08
2.332576271e-05
-1.796859696e-08
-2.379231309e-08
2.324190203e-05
-3.859554388e-08
-2.298048678e-08
2.332726486e-05
-5.886363578e-08
-2.301499341e-08
2.332849741e-05
-4.248665409e-08
-2.381658027e-08
2.325634643e-05
-2.308611836e-08
2.321453006e-05
4.139596846e-08
-2.444512522e-09
2.31326873e-05
5.946876354e-08
-1.852287934e-09
2.316277916e-05
3.833472864e-08
-2.534858929e-09
2.324659257e-05
1.694429931e-08
-2.554154924e-09
2.324535186e-05
3.857573505e-08
-1.841040989e-09
2.31484697e-05
1.817451462e-08
-2.545759137e-09
2.324390491e-05
-1.562105479e-09
-2.55406554e-09
2.324269488e-05
1.993778611e-08
-1.841407882e-09
2.314803193e-05
3.793335797e-13
-2.540020103e-09
2.324314223e-05
-1.993666833e-08
-2.540144334e-09
2.324314209e-05
1.563131644e-09
-1.841704596e-09
2.314803131e-05
-1.817391543e-08
-2.554643897e-09
2.32426934e-05
-3.857544611e-08
-2.546588298e-09
2.324390276e-05
-1.694409952e-08
-1.841958009e-09
2.314846671e-05
-3.833441067e-08
-2.555175384e-09
2.324534806e-05
-5.946810173e-08
-2.535784851e-09
2.324658812e-05
-4.139493319e-08
-1.853042303e-09
2.316277418e-05
-2.44495587e-09
2.313268223e-05
4.249646924e-08
-2.014892919e-08
2.321387267e-05
5.883822937e-08
-2.018245259e-08
2.325561907e-05
3.86032051e-08
-2.020164609e-08
2.332784872e-05
1.79995109e-08
-2.018656435e-08
2.332662173e-05
3.786437101e-08
-2.014553581e-08
2.324117053e-05
1.828313963e-08
-2.017328946e-08
2.33251161e-05
-6.518606429e-10
-2.016739663e-08
2.332385158e-05
1.909728453e-08
-2.013670855e-08
2.324079008e-05
2.65401499e-13
-2.016778469e-08
2.332435516e-05
-1.90963645e-08
-2.016792974e-08
2.332435499e-05
6.526365006e-10
-2.01370394e-08
2.324078931e-05
-1.828280566e-08
-2.016792931e-08
2.332384983e-05
-3.786434795e-08
-2.017402124e-08
2.332511372e-05
-1.79995254e-08
-2.014636288e-08
2.32411674e-05
-3.860301721e-08
-2.018737403e-08
2.332661789e-05
-5.883763448e-08
-2.020239177e-08
2.332784432e-05
-4.249537627e-08
-2.018302204e-08
2.325561425e-05
-2.014932713e-08
2.321386771e-05
4.251279297e-08
-4.649516269e-08
2.323068543e-05
5.890329716e-08
-4.722818419e-08
2.327247616e-05
3.861802371e-08
-4.644179263e-08
2.334469469e-05
1.79785373e-08
-4.640829152e-08
2.334347414e-05
3.790350218e-08
-4.720261788e-08
2.325807625e-05
1.828579456e-08
-4.639778669e-08
2.334198216e-05
-6.816714711e-10
-4.637978606e-08
2.334071686e-05
1.913030452e-08
-4.719425069e-08
2.325770192e-05
1.70193206e-13
-4.639910112e-08
2.334122398e-05
-1.912951071e-08
-4.639921173e-08
2.334122374e-05
6.822981013e-10
-4.719450266e-08
2.325770112e-05
-1.828563156e-08
-4.638017824e-08
2.334071495e-05
-3.790363862e-08
-4.639834043e-08
2.334197974e-05
-1.797864133e-08
-4.720321368e-08
2.325807317e-05
-3.861793433e-08
-4.640889367e-08
2.334347046e-05
-5.89026873e-08
-4.644227803e-08
2.334469058e-05
-4.251172092e-08
-4.722862591e-08
2.327247163e-05
-4.649520116e-08
2.323068093e-05
4.135116e-08
-2.738690322e-08
2.313715737e-05
5.951198671e-08
-2.689021425e-08
2.316721979e-05
3.835883064e-08
-2.752718462e-08
2.325108403e-05
1.694872058e-08
-2.755053216e-08
2.324984811e-05
3.861670514e-08
-2.683041714e-08
2.315291259e-05
1.819280814e-08
-2.753978923e-08
2.324840484e-05
-1.575894028e-09
-2.754363551e-08
2.324720496e-05
1.99629913e-08
-2.683046289e-08
2.315246926e-05
1.244272215e-13
-2.753226327e-08