/*--------------------------------*- C++ -*----------------------------------*\
  =========                 |
  \\      /  F ield         | OpenFOAM: The Open Source CFD Toolbox
   \\    /   O peration     | Website:  https://openfoam.org
    \\  /    A nd           | Version:  7
     \\/     M anipulation  |
\*---------------------------------------------------------------------------*/
FoamFile
{
    version     2.0;
    format      ascii;
    class       volScalarField;
    location    "2";
    object      cpavg;
}
// * * * * * * * * * * * * * * * * * * * * * * * * * * * * * * * * * * * * * //

dimensions      [0 2 -2 -1 0 0 0];

internalField   nonuniform List<scalar> 
10692
(
1.110223025e-16
4.440892099e-16
-3.330669074e-16
1.665334537e-16
-1.998401444e-15
-4.718447855e-16
5.551115123e-16
0
-1.232532469e-15
-5.317783376e-15
-8.881784197e-16
-3.330669074e-16
5.551115123e-17
-6.661338148e-16
4.94049246e-15
-2.2759572e-15
4.440892099e-16
-4.440892099e-15
0
7.105427358e-15
-1.110223025e-15
-1.110223025e-15
-7.105427358e-15
-7.105427358e-15
5.551115123e-15
-7.105427358e-15
-1.519662386e-14
1.364231163e-14
0
-6.661338148e-16
-2.642330799e-14
0
4.440892099e-16
6.661338148e-16
-7.105427358e-15
1.998401444e-15
-3.885780586e-16
-4.884981308e-15
4.718447855e-16
4.440892099e-16
-4.218847494e-15
8.326672685e-16
-4.440892099e-16
-1.33226763e-15
-5.245822603e-17
-4.360678297e-15
-8.881784197e-16
-2.775557562e-15
1.665334537e-16
-6.217248938e-15
2.775557562e-15
-9.992007222e-16
-2.442490654e-15
4.246603069e-15
8.326672685e-17
0
2.192690474e-15
1.221245327e-15
1.33226763e-15
2.220446049e-16
1.33226763e-15
1.776356839e-15
2.498001805e-16
-1.471045508e-15
2.220446049e-16
-1.082467449e-15
1.276756478e-15
7.993605777e-15
-3.885780586e-16
-4.718447855e-15
6.661338148e-16
2.248201625e-15
2.220446049e-16
7.105427358e-15
-5.773159728e-15
-8.437694987e-15
0
0
1.776356839e-15
-7.105427358e-15
6.661338148e-16
-1.998401444e-15
7.105427358e-15
-1.33226763e-15
6.661338148e-16
-7.105427358e-15
4.152234112e-14
8.881784197e-16
0
2.864375404e-14
1.33226763e-15
7.327471963e-15
-9.159339953e-16
3.330669074e-16
-1.776356839e-15
5.551115123e-17
1.1379786e-15
1.33226763e-15
1.915134717e-15
-2.498001805e-15
-2.664535259e-15
-2.91433544e-15
-5.551115123e-16
1.110223025e-15
5.911937606e-15
-7.21644966e-16
1.33226763e-15
1.387778781e-16
8.326672685e-17
1.487698853e-14
1.942890293e-16
-9.436895709e-16
1.776356839e-15
-7.494005416e-16
1.304512054e-15
4.440892099e-16
-1.415534356e-15
-1.471045508e-15
4.440892099e-16
5.551115123e-16
-2.359223927e-15
4.440892099e-16
1.804112415e-15
1.249000903e-15
2.220446049e-16
2.386979503e-15
-1.33226763e-15
0
2.220446049e-15
-4.440892099e-16
0
1.33226763e-15
6.217248938e-15
-7.105427358e-15
-3.196353321e-16
1.497457926e-14
0
-4.440892099e-16
-2.642330799e-14
-7.105427358e-15
0
1.421085472e-14
0
1.776356839e-15
-1.093754591e-15
-6.392706608e-16
-1.778485206e-15
-4.996003611e-16
2.220446049e-16
6.002600793e-16
2.012096206e-15
9.759072714e-17
3.676226933e-15
-2.941724965e-15
-1.586275768e-14
-8.67453251e-16
-2.506236022e-15
1.443289932e-14
-1.802282131e-16
-1.623518144e-15
-1.265654248e-14
4.515924609e-15
-5.290027801e-15
1.440603617e-14
-3.522829737e-15
-4.718447855e-15
-2.70894418e-14
1.342630214e-15
-4.145033747e-17
-1.608480228e-14
2.549256222e-15
8.928695081e-15
-1.366917478e-14
9.507199778e-16
1.747676706e-16
4.085620731e-14
1.012895482e-15
8.86772338e-15
1.221245327e-14
1.470120949e-16
-1.110223025e-15
0
-1.33226763e-15
-2.664535259e-15
-1.421085472e-14
-6.661338148e-16
-6.661338148e-16
-7.105427358e-15
-1.487698853e-14
1.35447209e-14
0
-8.881784197e-16
-1.509903313e-14
0
-1.33226763e-15
2.68673972e-14
0
-2.797762022e-14
7.21644966e-16
-2.220446049e-16
-8.881784197e-16
1.665334537e-15
0
2.581268532e-15
-1.887379142e-15
0
1.568006996e-15
-1.5247264e-16
2.220446049e-16
2.192690474e-15
-9.436895709e-16
-1.998401444e-15
1.665334537e-15
-3.996802889e-15
-1.33226763e-15
9.575673587e-15
0
2.797762022e-14
-2.775557562e-15
-1.637578961e-15
-8.881784197e-16
-3.330669074e-15
2.72004641e-15
-2.220446049e-16
-3.878750179e-15
1.595030466e-16
-1.33226763e-15
1.249000903e-15
1.387778781e-15
-2.220446049e-16
-4.996003611e-16
-2.47024623e-15
-1.598721155e-14
-1.110223025e-15
-8.881784197e-16
0
4.662936703e-15
-9.325873407e-15
0
4.440892099e-16
1.33226763e-15
0
-6.661338148e-16
4.218847494e-14
-1.421085472e-14
4.440892099e-16
1.33226763e-14
0
2.753353101e-14
1.376676551e-14
-7.105427358e-15
2.753353101e-14
4.884981308e-15
1.310063169e-14
2.164934898e-15
9.436895709e-16
1.221245327e-14
1.804112415e-15
-2.775557562e-16
1.398881011e-14
-1.472249317e-15
9.726489558e-16
2.220446049e-16
1.018629625e-14
-4.191091918e-15
1.376676551e-14
-5.218048216e-15
-5.079270338e-15
2.68673972e-14
1.276756478e-15
1.165734176e-15
-1.398881011e-14
1.110223025e-16
-5.551115123e-16
0
5.551115123e-17
8.326672685e-17
2.220446049e-16
-1.373717965e-15
1.264248166e-14
4.440892099e-16
2.2759572e-15
-1.387778781e-15
2.220446049e-16
-1.276756478e-15
4.191091918e-15
1.376676551e-14
5.551115123e-17
-6.661338148e-16
0
-3.552713679e-15
-6.661338148e-16
0
2.220446049e-16
8.881784197e-16
0
-6.661338148e-16
1.443289932e-14
-7.105427358e-15
6.661338148e-16
1.398881011e-14
-1.421085472e-14
2.819966483e-14
1.221245327e-14
-7.105427358e-15
2.620126338e-14
-2.2759572e-15
1.33226763e-15
5.273559367e-15
-3.053113318e-16
5.351274979e-14
-3.524958103e-15
0
-4.440892099e-16
1.775990782e-15
4.108191249e-15
-2.620126338e-14
-5.551115123e-16
7.521760992e-15
-2.531308496e-14
3.330669074e-16
-1.443289932e-15
1.33226763e-15
-4.829470157e-15
0
0
1.110223025e-15
-4.440892099e-16
0
-1.33226763e-14
1.443289932e-14
-7.105427358e-15
-8.613444161e-16
1.529424374e-14
-7.105427358e-15
2.220446049e-16
-2.731148641e-14
0
-8.881784197e-16
8.881784197e-16
-7.105427358e-15
5.684341886e-14
0
1011.639197
0
0
1011.639097
-7.105427358e-15
0
1011.63912
-7.105427358e-15
0
1011.63912
0
0
1011.639097
-7.105427358e-15
-7.105427358e-15
1011.639197
0
-2.247280087e-15
0
6.109912457e-15
-8.161982155e-15
0
-2.148465846e-14
-2.442490654e-15
-7.105427358e-15
-2.131628207e-14
1.043609643e-14
-7.105427358e-15
-3.303834967e-14
-3.108624469e-14
-7.105427358e-15
2.554250118e-14
-1.376676551e-14
-7.105427358e-15
-3.552713679e-15
-4.440892099e-16
-7.105427358e-15
-3.774758284e-15
4.218847494e-15
-7.105427358e-15
7.549516567e-15
-1.110223025e-14
0
3.162292702e-15
1.748785556e-14
7.105427358e-15
-1.287858709e-14
2.065014826e-14
0
4.352074257e-14
-5.262457137e-14
7.105427358e-15
3.996802889e-15
0
1011.639059
0
0
1011.63896
0
0
1011.638982
0
0
1011.638982
-7.105427358e-15
-7.105427358e-15
1011.63896
0
0
1011.639059
0
7.869166461e-15
-7.105427358e-15
1.838340565e-14
-5.551115123e-15
0
4.440892222e-16
1.398881011e-14
-1.421085472e-14
-8.223022118e-15
2.220446049e-16
-7.105427358e-15
-6.76867456e-15
2.176037128e-14
0
7.808419432e-16
-8.215650382e-15
-7.105427358e-15
2.664535259e-14
1.265654248e-14
-7.105427358e-15
-4.884981308e-15
-9.992007222e-15
-7.105427358e-15
-7.993605777e-15
1.976196984e-14
0
1.554312234e-14
-2.220446049e-16
0
-2.309263891e-14
-2.731148641e-14
0
-3.375077995e-14
2.620126338e-14
7.105427358e-15
2.753353101e-14
-7.105427358e-15
1011.639093
-7.105427358e-15
0
1011.638994
-7.105427358e-15
0
1011.639017
-7.105427358e-15
0
1011.639017
-7.105427358e-15
7.105427358e-15
1011.638994
0
0
1011.639093
0
-1.564072763e-14
0
-1.731947918e-14
2.274114271e-15
0
7.442180156e-15
2.865849758e-14
-7.105427358e-15
4.464570914e-14
-3.110098824e-14
0
-2.775557562e-14
-1.35447209e-14
0
-1.421085472e-14
1.88959065e-14
0
4.107825191e-14
1.40864154e-14
0
1.709743458e-14
-1.004567544e-14
-7.105427358e-15
-4.229581136e-14
-1.622399971e-14
0
1.339639408e-15
-1.621662794e-14
0
-1.776356839e-15
2.953193246e-14
0
1.110223025e-15
-9.039426929e-14
0
-1.376676551e-14
7.105427358e-15
1011.639102
0
-7.105427358e-15
1011.639002
-7.105427358e-15
0
1011.639025
-7.105427358e-15
0
1011.639025
-7.105427358e-15
0
1011.639002
-7.105427358e-15
0
1011.639102
0
1.233689259e-14
-7.105427358e-15
-1.205144859e-14
1.993034622e-14
0
2.909521502e-14
-2.37661445e-14
0
3.123368021e-15
1.310063169e-14
0
2.619389161e-14
8.881784197e-16
0
7.619815803e-14
-4.641469412e-14
0
-3.043485568e-14
2.864375404e-14
0
2.664535259e-14
-3.419486916e-14
0
-8.659739592e-15
3.108624469e-14
7.105427358e-15
-4.396483178e-14
-1.643130076e-14
7.105427358e-15
1.176836406e-14
2.997602166e-14
-7.105427358e-15
-5.995204333e-15
-2.620126338e-14
-7.105427358e-15
3.019806627e-14
0
1011.639091
0
0
1011.638992
0
0
1011.639015
-7.105427358e-15
0
1011.639015
0
-7.105427358e-15
1011.638992
0
0
1011.639091
0
1.532107774e-14
7.105427358e-15
1.709743458e-14
-3.108624469e-15
0
6.324585311e-15
-2.2941636e-16
0
3.12336799e-15
-1.561684113e-15
-7.105427358e-15
3.021280965e-14
-1.509903313e-14
-7.105427358e-15
-1.376676551e-14
-1.599458323e-14
0
7.552465475e-14
6.661338148e-16
0
-1.421085472e-14
-3.552713679e-15
7.105427358e-15
-8.881784197e-16
1.110223025e-15
-7.105427358e-15
-1.242712623e-14
-1.710480622e-14
0
-1.110223025e-15
-2.930988785e-14
7.105427358e-15
-1.532107774e-14
4.418687638e-14
-7.105427358e-15
-1.998401444e-14
0
1011.63915
-7.105427358e-15
0
1011.639051
0
0
1011.639074
0
-7.105427358e-15
1011.639074
0
0
1011.639051
0
-7.105427358e-15
1011.63915
-7.105427358e-15
-2.597921878e-14
0
-7.152785135e-14
5.83977311e-14
0
1.35447209e-14
-2.753353101e-14
-7.105427358e-15
2.269278306e-14
5.06279256e-15
0
-3.444640264e-14
7.527312107e-14
0
5.774634156e-14
5.195843755e-14
-7.105427358e-15
-2.864375404e-14
-3.968147415e-16
-1.24410367e-16
5.603074414e-16
1.890979072e-16
1.998401444e-15
1.192601796e-16
-1.276756478e-15
6.439293543e-15
1.294494664e-15
-1.244689314e-15
-6.661338148e-16
-2.21345497e-15
1.964940057e-15
5.329070518e-15
4.635181128e-15
-7.21644966e-16
4.218847494e-15
-4.218847494e-15
9.76341999e-17
-7.105427358e-15
1.684346089e-16
-3.108624469e-15
0
-3.491385517e-15
7.220365511e-15
0
-1.437928935e-14
6.829772783e-15
0
-2.403442731e-14
-2.434658992e-15
0
-4.440892099e-16
-1.088018564e-14
-7.105427358e-15
-3.774758284e-15
1.439689896e-16
-6.661338148e-16
-6.990757074e-16
-5.191082131e-18
2.886579864e-15
1.693094878e-15
-6.93889399e-16
3.552770296e-15
3.330716733e-16
8.083073722e-16
-3.943136202e-15
6.310897832e-15
2.039939619e-15
-5.35534798e-17
2.8795886e-15
3.341055996e-15
-7.809584365e-16
-9.678451537e-16
-7.268360775e-16
-3.943192846e-15
1.271565401e-15
-2.220446049e-16
2.664535259e-15
1.337463468e-15
-1.86301447e-15
2.220446049e-16
-4.041512989e-16
-3.84245177e-15
5.361012112e-17
3.635980406e-15
-3.561295659e-15
6.217248938e-15
-2.705644919e-16
-3.075673058e-15
-2.220446049e-16
-2.509975104e-15
-1.651932105e-15
0
-1.684344669e-16
4.976993367e-16
-7.105427358e-15
1.865957722e-14
-7.886385573e-15
0
3.292719909e-15
1.271015258e-14
-7.105427358e-15
-2.953953665e-14
4.286243916e-14
0
4.518987913e-14
2.26485497e-14
0
2.753353101e-14
-9.055433696e-16
1.643130076e-14
-1.847441229e-15
1.259392584e-15
1.032898934e-14
-1.183098061e-15
9.714451465e-16
1.060464409e-14
2.246401462e-15
9.784459158e-16
-1.59948158e-14
9.402986518e-16
-6.579452754e-15
-2.94007685e-15
3.167526521e-15
1.58206781e-15
-3.943192876e-15
-5.861617569e-15
-7.853927899e-16
-1.117827627e-15
5.499204319e-16
5.880629305e-16
-1.499181295e-14
-3.260756636e-16
1.38080659e-15
1.188330167e-14
-1.498782032e-15
2.334868804e-15
3.108624469e-15
1.554312234e-15
5.204103827e-15
-4.111627304e-15
1.047739668e-15
5.384581669e-15
-3.223449073e-15
-4.069677787e-15
-9.857982968e-16
7.105427358e-15
-3.774758273e-15
2.442490654e-15
0
7.442409562e-15
1.546707937e-15
-7.105427358e-15
3.37095406e-16
1.22504748e-15
0
-3.043531947e-14
-2.574934358e-14
0
-1.171437336e-15
2.309263891e-14
-7.105427358e-15
2.398081733e-14
-2.16853489e-16
-1.888139605e-14
-1.691289942e-15
-1.221245327e-15
6.125237298e-16
9.885903016e-17
2.799722356e-15
3.298525668e-14
-1.587258894e-15
5.37940964e-15
-2.797762022e-14
5.610017206e-15
2.175317066e-15
-3.996802889e-15
-2.147352071e-15
-2.905544018e-15
8.276865014e-15
1.625415933e-15
-1.948081409e-15
4.226678977e-15
8.742149666e-16
-2.865796486e-15
-1.68139493e-14
2.718265307e-15
4.340299602e-15
-2.564919449e-15
-2.128387931e-15
8.966508547e-15
-2.434659955e-15
-2.105823439e-15
-1.835411144e-15
4.152234112e-14
5.483231277e-15
1.139177795e-14
1.237328324e-14
-5.032341422e-15
2.220446049e-15
0
-1.669136629e-15
2.834286559e-16
0
-7.939995702e-15
8.881784197e-16
-7.105427358e-15
-1.443289932e-14
0
0
1.927210126e-14
3.108624469e-15
0
1.715142506e-15
2.68019624e-15
0
3.798529534e-14
-4.114261868e-15
-2.618529912e-15
5.033970029e-15
-3.962056066e-15
2.392720725e-14
-2.236019301e-15
-9.019515189e-16
-2.993001593e-14
-3.146762214e-15
8.326672684e-16
-6.286067666e-15
1.386016737e-15
-4.626389731e-15
5.62038642e-15
2.974828256e-15
-1.011383054e-15
5.336902015e-15
-3.937307697e-16
2.692290835e-15
4.440892099e-16
7.21644966e-16
-3.628989159e-15
-5.780763993e-15
-2.220446049e-16
3.635980406e-15
-1.22200576e-14
-9.263161643e-16
-4.822269544e-16
-1.132427485e-14
5.849454273e-15
5.710676392e-15
-8.445299253e-15
-3.157144373e-15
-6.876391502e-15
-1.355232554e-14
7.015188722e-15
-1.58108857e-15
-7.105427358e-15
2.22044606e-15
-3.384222599e-15
-7.105427358e-15
-1.004550413e-14
2.220446049e-16
-7.105427358e-15
-2.447851662e-14
3.558857755e-14
0
-9.670346769e-15
2.220446049e-14
0
4.092525208e-14
1.265654248e-14
-7.105427358e-15
3.019806627e-14
5.067989306e-15
1.599504303e-14
1.687899032e-15
8.067118598e-16
1.793200284e-14
2.227437264e-15
1.927317042e-15
1.532890843e-14
1.514393364e-15
2.725237494e-15
2.425647201e-14
3.86300667e-15
-3.353214512e-15
2.254915997e-14
-3.687891223e-15
-5.330661256e-15
4.048116399e-14
1.006040564e-15
5.551115123e-17
4.440892099e-16
3.557909511e-15
5.450484487e-15
-3.567921641e-15
1.34964105e-15
-2.789330613e-15
2.797762022e-14
-1.859604531e-15
1.045686075e-14
1.621708633e-14
2.220446049e-16
-6.938893904e-16
-4.440892099e-15
-1.457501204e-16
3.802513859e-15
9.103828802e-15
3.261214012e-15
-2.442490654e-15
-7.105427358e-15
-6.385683488e-15
-3.330669074e-15
0
-1.082657562e-14
0
-7.105427358e-15
-2.470056116e-14
6.270858955e-15
0
-3.49910366e-15
1.7985613e-14
-7.105427358e-15
3.698205994e-14
1.243449788e-14
0
-4.284203017e-16
4.829470157e-15
-3.398803598e-14
7.129352843e-17
3.918732056e-15
2.418765126e-14
5.193683707e-15
-3.861416076e-15
-4.593000088e-16
-1.127056374e-14
8.508593013e-17
-1.53864614e-15
4.267386659e-15
1.456174848e-16
2.3552394e-14
1.236609573e-15
2.137179322e-15
-3.398803598e-14
1.007514268e-14
1.387778781e-16
-3.552713679e-15
-1.942890293e-16
1.748601264e-15
-8.659739592e-15
1.942890293e-16
2.498001805e-16
-1.043609643e-14
-5.273559367e-16
-3.330669074e-15
2.220446049e-16
-1.387778781e-16
-7.494005416e-16
-8.881784197e-15
1.471045508e-15
-7.494005416e-16
-1.554312234e-15
-3.275157923e-15
-5.329070518e-15
0
4.440892099e-16
-1.110223025e-15
-7.105427358e-15
2.886579864e-15
-1.665334537e-14
7.105427358e-15
6.661338148e-15
2.220446049e-16
-7.105427358e-15
-2.842170943e-14
1.243449788e-14
0
-3.774758284e-15
-1.376676551e-14
-7.105427358e-15
4.218847494e-15
0
3.774758284e-15
1.942890293e-16
8.881784197e-16
3.996802889e-15
-4.718447855e-16
1.276756478e-15
-8.215650382e-15
-1.249000903e-15
-1.1379786e-15
-8.881784197e-16
1.1379786e-15
6.189493362e-15
-4.218847494e-15
2.303712776e-15
2.2759572e-15
6.661338148e-16
4.607425552e-15
5.828670879e-16
0
8.326672685e-16
2.47024623e-15
-1.754152379e-14
1.915134717e-15
-8.326672685e-17
3.330669074e-15
6.054268234e-16
-5.545919283e-15
7.549516567e-15
-1.33226763e-15
5.967448757e-15
-1.088018564e-14
2.081668171e-15
-5.995204333e-15
-7.105427358e-15
4.635181128e-15
-3.552713679e-15
0
3.108624469e-15
-1.043609643e-14
-7.105427358e-15
-1.953992523e-14
4.884981308e-15
-7.105427358e-15
-1.8046997e-14
-9.264489405e-15
-7.105427358e-15
3.996802889e-15
2.509104036e-14
-7.105427358e-15
9.103828802e-15
4.485301019e-14
0
2.220446049e-16
-2.220446049e-16
1.421085472e-14
1.748601264e-15
-4.163336342e-16
-7.993605777e-15
-5.273559367e-16
4.163336342e-16
-1.110223025e-15
2.647171373e-15
-3.434585967e-16
1.998401444e-15
1.110223025e-15
4.413136523e-15
-3.996802889e-15
9.436895709e-16
1.942890293e-15
4.440892099e-16
-2.91433544e-15
-3.497202528e-15
5.551115123e-15
1.942890293e-16
-1.58206781e-15
4.440892099e-15
1.720845688e-15
-2.442490654e-15
-7.327471963e-15
3.937739052e-16
-2.086864018e-15
1.088018564e-14
-6.938893904e-16
1.998401444e-15
1.065814104e-14
-6.133982211e-15
7.743805597e-15
7.993605777e-15
-2.692290835e-15
7.549516567e-15
0
-3.108624469e-15
4.440892099e-16
7.105427358e-15
-5.107025913e-15
5.329070518e-15
0
-1.47620509e-14
-1.898872905e-14
0
-6.661338148e-16
2.664535259e-15
0
1.465494393e-14
1.82076576e-14
0
-3.130828929e-14
-1.609823386e-15
1.243449788e-14
-8.049116929e-16
-2.220446049e-16
1.437934582e-14
-1.148370294e-15
1.436317748e-15
1.476205089e-14
1.609823386e-15
-1.387778781e-16
-9.318042708e-15
5.913580783e-15
3.269828903e-15
1.143921245e-14
-5.299538587e-15
-3.460698388e-15
1.048964972e-14
8.848905736e-16
1.693090113e-15
-3.574918139e-14
-2.525757381e-15
-6.938893904e-16
-2.992246816e-14
8.153033863e-16
-6.904166145e-15
6.554231185e-15
-1.349631508e-15
8.500311474e-16
-1.088801634e-14
2.481570037e-16
-8.571143845e-15
2.342179052e-14
-4.137357122e-15
2.544764393e-15
-5.355328511e-17
1.529844505e-15
-8.881784197e-15
0
-1.33226763e-14
-9.103828802e-15
0
-3.330669074e-15
2.220446049e-16
0
6.829829282e-15
-1.038254296e-14
0
-2.908784325e-14
4.107825191e-14
0
-1.243449788e-14
2.220446049e-16
-7.105427358e-15
-3.552713679e-15
-1.887379142e-15
-1.998401444e-15
-2.831068713e-15
-2.109423747e-15
-2.220446049e-16
-7.494005416e-16
-1.637578961e-15
-7.993605777e-15
2.73727714e-15
-1.016431452e-15
2.309263891e-14
-5.440092821e-15
5.107025913e-15
-3.042011087e-14
6.800116026e-15
1.165734176e-15
-1.221245327e-14
-3.885780586e-15
3.830269435e-15
-9.992007222e-15
4.30211422e-15
-4.163336342e-15
2.509104036e-14
-3.053113318e-16
2.525757381e-15
-9.325873407e-15
2.334887869e-15
-5.721068094e-15
-2.353672812e-14
-2.220446049e-15
4.246603069e-15
9.325873407e-15
1.58206781e-15
-7.299716387e-15
1.310063169e-14
6.938893904e-16
2.442490654e-15
7.105427358e-15
6.883382753e-15
-1.110223025e-14
-7.105427358e-15
-7.549516567e-15
-1.043609643e-14
-7.105427358e-15
1.684911267e-16
1.159987293e-14
-7.105427358e-15
8.437694987e-15
-2.220446049e-16
0
-2.664535259e-14
2.886579864e-14
-7.105427358e-15
-3.552713679e-15
3.247402347e-15
5.551115123e-15
1.054711873e-15
5.412337245e-15
-3.552713679e-15
4.191091918e-15
1.026956298e-15
-1.287858709e-14
2.446043324e-16
-2.798117289e-15
1.33226763e-14
2.775557562e-16
-1.915134717e-15
-5.107025913e-15
-5.551115123e-17
-3.691491557e-15
-2.353672812e-14
-6.133982211e-15
-4.385380947e-15
-4.840572387e-14
-3.053113318e-16
-2.609024108e-15
3.552713679e-15
-1.054711873e-15
9.992007222e-16
0
-5.531974833e-15
7.44710955e-15
-1.554312234e-14
2.220446049e-16
-2.581268532e-15
2.042810365e-14
-4.357625372e-15
5.995204333e-15
2.886579864e-15
-2.220446049e-16
7.105427358e-15
-7.105427358e-15
4.440892099e-15
-1.487698853e-14
0
-4.440892099e-15
-1.33226763e-14
0
-3.38422242e-15
-4.609383357e-15
-7.105427358e-15
9.769962617e-15
2.131628207e-14
-7.105427358e-15
-1.243449788e-14
-3.219646771e-14
0
-2.819966483e-14
8.326672685e-17
1.021405183e-14
-4.024558464e-15
2.248201625e-15
-2.220446049e-16
3.635980406e-15
-3.830269435e-15
2.287059431e-14
-7.169686581e-15
-1.739853192e-15
-6.128431096e-14
-6.106226635e-16
-4.773959006e-15
-2.420286194e-14
4.884981308e-15
2.248201625e-15
-4.463096559e-14
-1.415534356e-15
-1.554312234e-15
-7.105427358e-15
6.883382753e-15
-4.218847494e-15
0
0
7.549516567e-15
0
1.386441322e-14
-9.764771124e-17
0
4.440892099e-16
-1.110223025e-15
0
2.575717417e-14
-1.421085472e-14
7.105427358e-15
2.68673972e-14
0
1012.078813
0
0
1012.077673
0
0
1012.07778
7.105427358e-15
0
1012.07778
-7.105427358e-15
-7.105427358e-15
1012.077673
0
0
1012.078813
0
-6.910132205e-15
0
-1.447311841e-15
7.771561172e-15
-7.105427358e-15
1.96630122e-14
-8.108650122e-15
0
1.281704284e-14
1.516057645e-14
-7.105427358e-15
1.493853182e-14
-2.353672812e-14
0
2.931793075e-14
-1.555116616e-14
0
-2.680635116e-15
-7.105427358e-15
0
-7.549516567e-15
-1.398881011e-14
0
-1.33226763e-14
1.065814104e-14
0
3.286260153e-14
-2.575717417e-14
0
1.643130076e-14
-2.176037128e-14
0
8.881784197e-15
-8.215650382e-15
0
-8.881784197e-16
-7.105427358e-15
1012.077201
-7.105427358e-15
-7.105427358e-15
1012.076071
-7.105427358e-15
-7.105427358e-15
1012.076178
-7.105427358e-15
0
1012.076178
7.105427358e-15
0
1012.076071
0
0
1012.077201
-7.105427358e-15
3.196922125e-16
0
-6.56238072e-15
1.110223025e-15
-7.105427358e-15
-1.53291212e-14
7.771561172e-15
0
1.689147722e-14
-3.110233179e-14
0
8.22369404e-15
-4.440892099e-16
-7.105427358e-15
0
-2.220446049e-16
-7.105427358e-15
-2.797762022e-14
2.220446049e-16
-7.105427358e-15
-7.549516567e-15
1.33226763e-15
-7.105427358e-15
2.353672812e-14
-1.554312234e-15
-7.105427358e-15
-1.676838952e-14
3.009106581e-14
7.105427358e-15
-1.576516695e-14
-6.883382753e-15
7.105427358e-15
-1.221245327e-14
-7.327471963e-15
-7.105427358e-15
-4.840572387e-14
0
1012.077399
0
0
1012.076269
0
-7.105427358e-15
1012.076376
0
-7.105427358e-15
1012.076376
-7.105427358e-15
-7.105427358e-15
1012.076269
0
-7.105427358e-15
1012.077399
0
-2.220446049e-16
0
3.27716881e-15
6.324249476e-15
-7.105427358e-15
7.66456075e-15
1.35447209e-14
0
4.107825191e-14
-1.376676548e-14
-7.105427358e-15
-2.663730886e-14
1.623338744e-14
-7.105427358e-15
1.398881011e-14
-3.560757202e-15
0
-3.422706765e-14
-1.576516695e-14
-7.105427358e-15
-5.275570254e-15
-4.407183231e-14
-7.105427358e-15
-3.852876083e-14
2.375877273e-14
-7.105427358e-15
3.790845959e-15
-3.176846621e-14
0
-1.398881011e-14
3.705731774e-14
0
-1.597916803e-14
3.153837742e-14
0
-7.739362685e-15
0
1012.077482
0
-7.105427358e-15
1012.076351
-7.105427358e-15
0
1012.076458
0
-7.105427358e-15
1012.076458
7.105427358e-15
-7.105427358e-15
1012.076351
0
0
1012.077482
-7.105427358e-15
-1.429915249e-15
-7.105427358e-15
-3.953198326e-14
-1.439268119e-15
7.105427358e-15
6.998426972e-15
-8.889828046e-15
0
-1.28705432e-14
1.242645403e-14
-7.105427358e-15
-1.784400688e-15
1.398881011e-14
-7.105427358e-15
2.113445556e-14
-1.998401444e-15
0
-4.440892099e-16
-2.220446049e-16
0
-4.440892099e-16
-4.218847494e-15
0
1.176836406e-14
3.330669074e-15
0
-3.044424264e-14
-2.528895319e-14
0
-1.310063169e-14
1.509903313e-14
0
-1.643130076e-14
-4.218847494e-15
-7.105427358e-15
2.775557562e-14
7.105427358e-15
1012.077469
-7.105427358e-15
0
1012.076338
-7.105427358e-15
-7.105427358e-15
1012.076445
-7.105427358e-15
0
1012.076445
-7.105427358e-15
0
1012.076338
-7.105427358e-15
-7.105427358e-15
1012.077469
0
2.654770497e-14
0
3.854484749e-14
-3.475400246e-14
-7.105427358e-15
7.44251573e-15
-2.16533709e-14
0
1.376676464e-14
1.44409432e-14
0
1.44409423e-14
-4.509114238e-14
7.105427358e-15
-4.68755424e-14
-2.79856638e-14
0
1.979416507e-14
-2.642330799e-14
0
-2.886579864e-14
1.465494393e-14
0
-1.554312234e-15
-1.310063169e-14
0
-3.338712093e-15
1.488503155e-14
-7.105427358e-15
2.731148641e-14
1.776356839e-15
-7.105427358e-15
-1.421085472e-14
-2.26485497e-14
-7.105427358e-15
-3.419486916e-14
-7.105427358e-15
1012.078131
0
7.105427358e-15
1012.076997
0
0
1012.077103
-7.105427358e-15
0
1012.077103
-7.105427358e-15
-7.105427358e-15
1012.076997
-7.105427358e-15
0
1012.078131
-7.105427358e-15
8.881784197e-16
-7.105427358e-15
3.346764683e-15
-3.108624469e-14
-7.105427358e-15
-3.798572347e-14
-3.996802889e-15
0
6.02739674e-15
-3.400501696e-14
0
2.999211769e-14
1.021405183e-14
0
-2.819966483e-14
-5.462297281e-14
-7.105427358e-15
-8.348877145e-14
-5.303876525e-16
-6.119574752e-15
-3.525812643e-16
2.131974278e-15
-1.243706613e-16
6.279681379e-16
-2.323227131e-15
4.440892099e-16
-2.227364391e-15
8.326672685e-17
7.549516567e-15
-1.935954926e-15
-1.512685913e-15
0
4.829470157e-15
3.594388074e-15
-4.440892099e-16
-2.997602166e-15
-1.465494393e-14
-7.105427358e-15
-5.053529992e-15
1.532107774e-14
0
6.883382785e-15
-2.198241589e-14
0
3.222164955e-14
-8.445955842e-15
-7.105427358e-15
-1.555138314e-14
-1.784617571e-15
-7.105427358e-15
1.555138283e-14
-1.776356839e-15
-7.105427358e-15
-7.549516567e-15
1.665334461e-16
-3.046868717e-15
-7.702199422e-16
1.741664878e-15
1.910409258e-14
-2.199622545e-15
-1.276756478e-15
-2.754415903e-16
-3.535367775e-15
-6.522613497e-16
-1.327748789e-14
-9.211389483e-16
-1.181348675e-15
3.836511802e-15
5.672557235e-15
1.365248869e-15
3.055228345e-15
-7.84105171e-16
5.499065256e-16
-1.537447438e-14
-6.938893904e-16
-9.645087606e-16
-1.620925616e-14
7.164401625e-16
-7.719471573e-16
1.337612325e-14
-3.209257502e-16
4.926681657e-16
2.167048553e-15
-6.127045855e-15
1.483186673e-15
-1.265654248e-14
-1.059916671e-15
1.637578961e-15
-7.105427358e-15
4.213642507e-15
-6.883382753e-15
7.105427358e-15
7.278870282e-16
-8.828337235e-15
-7.105427358e-15
-1.477009475e-14
-6.661338148e-15
0
-7.664667456e-15
-3.564228768e-14
7.105427358e-15
1.35447209e-14
-1.555137939e-14
-7.105427358e-15
-7.327471963e-15
-6.883382753e-15
-7.105427358e-15
-5.130883531e-14
-5.655215073e-16
1.56267154e-15
4.475749755e-16
-7.042990023e-16
-1.499213936e-14
-4.510358283e-16
3.16413562e-15
-2.31008962e-14
3.948238404e-15
-4.520695842e-15
1.454814929e-14
-6.869530688e-16
4.787811045e-16
7.220578289e-15
1.259418836e-15
-1.294102428e-15
7.442624191e-15
-2.810261956e-15
2.627683784e-15
-9.21898103e-15
1.675752483e-15
7.199342421e-16
1.510748843e-14
1.970645869e-15
7.528988485e-16
1.621771175e-14
-2.536167023e-15
5.169462948e-16
-1.477009497e-14
1.148396561e-15
9.194322923e-16
-8.996935128e-15
3.240482653e-15
-1.733762953e-17
-8.552847215e-15
2.463327599e-15
6.661338148e-15
-7.105427358e-15
-8.890041433e-15
1.500914884e-15
0
-1.621751364e-14
8.55294513e-15
-7.105427358e-15
1.06893501e-16
-2.053499715e-14
-7.105427358e-15
-1.45480504e-14
7.327471963e-15
0
1.118480261e-15
-1.554312234e-15
0
-6.905587213e-14
-1.117141629e-15
2.399733751e-14
-1.445021417e-15
7.112560281e-17
2.006658939e-15
5.901546734e-15
-1.866559842e-15
3.177734985e-14
2.744339091e-15
-4.301895219e-16
4.525451127e-16
-2.310649048e-15
8.42383907e-15
-4.464748052e-14
3.646406685e-15
1.169224154e-15
-1.208904083e-14
5.259661522e-15
-2.546577408e-15
-2.555990984e-14
-1.974119202e-15
2.210040575e-15
-3.754205322e-14
-1.144956666e-16
-5.231931238e-15
-8.00166529e-15
-4.427019555e-15
-4.999487478e-15
1.622616801e-14
-2.393926249e-15
5.731581537e-15
6.883382753e-15
2.678418216e-15
-1.144956355e-16
-1.011541966e-14
-4.274345273e-15
-9.077106529e-15
-7.105427358e-15
-1.003329435e-15
6.883382753e-15
-7.105427358e-15
5.592403796e-16
-1.33226763e-15
0
1.733619301e-14
-1.000852281e-14
0
-5.309343378e-14
3.019806627e-14
-7.105427358e-15
6.776489212e-15
2.044501486e-14
-7.105427358e-15
5.108719548e-14
-3.159369947e-15
-1.365141383e-14
-3.054855178e-15
5.707426098e-16
-1.387346088e-14
6.869614415e-16
-2.095551203e-15
0
-3.552697023e-15
-7.042990445e-16
-1.555138012e-14
3.108624469e-15
1.870049867e-15
6.439293543e-15
7.285897842e-15
-2.40779878e-15
0
-5.505997039e-15
5.828670879e-16
1.487698853e-14
2.137179322e-15
-1.746869788e-15
2.109423747e-14
1.609823386e-15
3.417434176e-15
-7.327471963e-15
1.706962635e-15
2.08188743e-16
-2.265680755e-14
-2.47024623e-15
3.046193703e-15
-8.667997218e-15
-2.997602166e-15
3.261318647e-15
1.376676551e-14
1.915134717e-15
7.647190343e-15
0
6.661338148e-15
1.398881011e-14
0
1.532943454e-14
-1.52141843e-14
0
-1.562570013e-15
-6.20899116e-15
-7.105427358e-15
-8.55284615e-15
-1.398881011e-14
-7.105427358e-15
6.776489156e-15
5.551115123e-15
0
-7.327471963e-15
4.225356962e-15
1.677675608e-14
6.869529904e-16
4.042049993e-16
2.277215594e-14
6.46706772e-15
-1.228164941e-15
2.287885088e-14
-1.738191764e-15
2.040039961e-15
-1.225374227e-15
4.576206928e-15
1.196979729e-15
1.454804979e-14
-7.441977977e-15
-2.879653956e-16
1.555138128e-14
-1.76594698e-15
-2.517516184e-15
-3.108624469e-15
-1.786766427e-15
1.054711873e-15
1.33226763e-14
-2.94893424e-16
-6.383782392e-16
5.329070518e-15
-4.930092956e-15
-3.920411932e-16
2.450945067e-15
1.58206781e-15
-3.469497242e-16
-8.881784197e-16
3.261471137e-16
-1.637578961e-15
5.773159728e-15
1.554312234e-15
1.507233636e-14
0
9.876855459e-15
1.33226763e-14
-7.105427358e-15
1.532943637e-14
-1.565827426e-14
0
-1.722084581e-14
-2.143143402e-14
7.105427358e-15
-2.299400545e-14
-1.651832628e-17
0
1.722930289e-14
-2.442490654e-15
0
-4.440892099e-16
-2.295471523e-15
4.464790237e-14
-7.790650159e-15
2.6975e-15
1.398881011e-14
-2.161473311e-15
-3.486784177e-15
7.105427358e-15
-7.441955825e-15
7.320422658e-16
-5.949102435e-14
-9.350180009e-15
5.405418364e-15
-3.88408767e-14
1.203899654e-15
6.661338148e-16
-1.863481004e-14
8.188316005e-16
-1.554312234e-15
5.995204333e-15
-4.718447855e-16
-2.053912596e-15
-7.771561172e-15
3.247402347e-15
1.054711873e-15
-1.35447209e-14
3.70541045e-15
-4.167446837e-17
0
7.771561172e-16
1.942890293e-16
1.554312234e-15
9.159339953e-16
-1.193489751e-15
1.776356839e-15
-2.2759572e-15
7.327471963e-15
-7.105427358e-15
0
-1.110223025e-14
-7.105427358e-15
5.773159728e-15
7.549516567e-15
-7.105427358e-15
-2.771327316e-15
-1.499224108e-14
-7.105427358e-15
1.953992523e-14
3.552713679e-15
0
-1.554312234e-14
1.598721155e-14
0
-2.775557562e-14
-6.106226635e-16
7.993605777e-15
-1.720845688e-15
-1.748601264e-15
-3.552713679e-15
-7.771561172e-16
3.60822483e-15
-8.215650382e-15
1.009618731e-15
4.68027427e-15
1.110223025e-15
4.440892099e-16
-4.968248035e-15
-7.993605777e-15
3.136380045e-15
-2.664535259e-15
-2.220446049e-16
-2.220446049e-15
-2.775557562e-17
-1.953992523e-14
-3.330669074e-16
-6.938893904e-16
-3.774758284e-15
1.443289932e-15
-1.193489751e-15
3.774758284e-15
-8.604228441e-16
-2.303712776e-15
-1.776356839e-15
1.276756478e-15
6.938893904e-16
1.132427485e-14
-2.775557562e-15
8.881784197e-16
3.552713679e-15
-1.748601264e-15
7.993605777e-15
-7.105427358e-15
2.220446049e-16
2.220446049e-15
-7.105427358e-15
1.620925616e-14
-8.881784197e-15
-7.105427358e-15
-6.990177469e-15
1.476173864e-14
0
-9.325873407e-15
-1.731947918e-14
-7.105427358e-15
7.105427358e-15