/*--------------------------------*- C++ -*----------------------------------*\
  =========                 |
  \\      /  F ield         | OpenFOAM: The Open Source CFD Toolbox
   \\    /   O peration     | Website:  https://openfoam.org
    \\  /    A nd           | Version:  7
     \\/     M anipulation  |
\*---------------------------------------------------------------------------*/
FoamFile
{
    version     2.0;
    format      ascii;
    class       volScalarField;
    location    "2";
    object      kappaavg;
}
// * * * * * * * * * * * * * * * * * * * * * * * * * * * * * * * * * * * * * //

dimensions      [1 1 -3 -1 0 0 0];

internalField   nonuniform List<scalar> 
10692
(
5.082197684e-21
1.355252716e-20
-9.31736242e-21
5.929230631e-21
-5.421010862e-20
-1.101142831e-20
1.694065895e-20
-1.355252716e-20
-3.174621381e-20
-1.427425733e-19
-2.032879073e-20
-1.016439537e-20
0
-1.355252716e-20
1.355252716e-19
-6.09863722e-20
-1.355252716e-20
-1.202786785e-19
-1.355252716e-20
0
-2.032879073e-20
-2.710505431e-20
-2.168404345e-19
-2.032879073e-19
1.626303259e-19
-2.168404345e-19
-3.956368577e-19
3.685318034e-19
0
-2.032879073e-20
-6.979551485e-19
0
6.776263578e-21
2.032879073e-20
0
6.09863722e-20
-8.470329473e-21
-1.28749008e-19
1.270549421e-20
1.185846126e-20
-1.151964808e-19
2.371692252e-20
-1.185846126e-20
-2.710505431e-20
-2.355623368e-21
-1.145349234e-19
-4.065758147e-20
-7.369186641e-20
3.388131789e-21
-1.626303259e-19
7.538593231e-20
-2.795208726e-20
-6.776263578e-20
1.151964808e-19
1.694065895e-21
-1.355252716e-20
6.09863722e-20
3.04931861e-20
3.388131789e-20
5.082197684e-21
3.726944968e-20
5.421010862e-20
5.929230631e-21
-3.896351557e-20
0
-2.710505431e-20
3.2187252e-20
2.032879073e-19
-1.101142831e-20
-1.270549421e-19
1.355252716e-20
6.183340515e-20
1.355252716e-20
0
-1.490777987e-19
-2.303929617e-19
0
1.355252716e-20
4.743384505e-20
0
3.388131789e-20
-6.09863722e-20
0
-2.032879073e-20
0
-2.168404345e-19
1.111307227e-18
2.710505431e-20
0
7.724940479e-19
3.642241673e-20
1.897353802e-19
-2.541098842e-20
8.470329473e-21
-5.421010862e-20
0
3.134021905e-20
3.388131789e-20
4.997494389e-20
-6.860966873e-20
-5.421010862e-20
-7.792703115e-20
-1.43995601e-20
2.032879073e-20
1.567010952e-19
-2.032879073e-20
3.388131789e-20
5.082197684e-21
4.235164736e-21
3.997995511e-19
4.235164736e-21
-2.371692252e-20
4.065758147e-20
-2.117582368e-20
3.388131789e-20
1.355252716e-20
-3.811648263e-20
-3.642241673e-20
6.776263578e-21
1.6093626e-20
-6.352747104e-20
1.355252716e-20
4.65868121e-20
3.472835084e-20
6.776263578e-21
6.522153694e-20
-4.065758147e-20
0
4.743384505e-20
-2.032879073e-20
-2.168404345e-19
2.710505431e-20
1.694065895e-19
-2.168404345e-19
-9.389836824e-21
4.024131243e-19
-2.168404345e-19
-6.776263578e-21
-7.182839393e-19
0
-6.776263578e-21
3.862470239e-19
0
4.743384505e-20
-2.920511482e-20
-1.877966916e-20
-4.728341363e-20
-1.185846126e-20
1.355252716e-20
1.602353721e-20
5.279639853e-20
1.616610039e-20
9.817548082e-20
-7.933477739e-20
-4.159656515e-19
-2.357674462e-20
-6.713612217e-20
3.794707604e-19
-4.515517217e-21
-4.602013032e-20
-3.523657061e-19
1.200581593e-19
-1.418955405e-19
3.846979024e-19
-9.417108857e-20
-1.253608762e-19
-7.250602028e-19
3.564547257e-20
-2.803558025e-22
-4.295181786e-19
6.721646336e-20
2.38356452e-19
-3.700809235e-19
2.696487641e-20
4.455684071e-21
1.0977547e-18
2.823243974e-20
2.391436423e-19
3.184843882e-19
1.067552116e-21
-4.743384505e-20
-2.168404345e-19
0
-7.453889936e-20
-4.33680869e-19
-1.355252716e-20
-2.032879073e-20
0
-3.997995511e-19
3.659182332e-19
0
0
-4.065758147e-19
0
-4.065758147e-20
7.182839393e-19
-2.168404345e-19
-7.453889936e-19
1.948175779e-20
6.776263578e-21
-2.456395547e-20
4.828087799e-20
0
6.860966873e-20
-5.336307568e-20
0
4.093793738e-20
-4.515520646e-21
6.776263578e-21
5.929230631e-20
-2.710505431e-20
-4.743384505e-20
4.48927462e-20
-1.075731843e-19
-4.065758147e-20
2.57498016e-19
0
7.521652572e-19
-7.792703115e-20
-4.150461442e-20
-4.065758147e-20
-8.809142651e-20
7.369186641e-20
-6.776263578e-21
-1.043252302e-19
5.222375353e-21
-3.388131789e-20
3.2187252e-20
3.642241673e-20
0
-1.185846126e-20
-6.776263578e-20
-4.133520783e-19
-3.04931861e-20
-2.710505431e-20
-2.168404345e-19
1.28749008e-19
-2.439454888e-19
2.168404345e-19
0
4.065758147e-20
0
-2.032879073e-20
1.11808349e-18
-2.168404345e-19
1.355252716e-20
3.726944968e-19
0
7.318364664e-19
3.591419696e-19
-2.168404345e-19
7.250602028e-19
1.304430739e-19
3.591419696e-19
5.675120747e-20
2.625802136e-20
3.388131789e-19
4.828087799e-20
-5.929230631e-21
3.659182332e-19
-3.932421167e-20
2.577168452e-20
6.776263578e-21
2.73591642e-19
-1.101142831e-19
3.726944968e-19
-1.389134033e-19
-1.363723045e-19
7.318364664e-19
3.2187252e-20
3.04931861e-20
-3.862470239e-19
1.694065895e-21
-1.43995601e-20
-6.776263578e-21
0
4.235164736e-21
0
-3.839683538e-20
3.382464987e-19
0
6.183340515e-20
-3.726944968e-20
2.032879073e-20
-3.388131789e-20
1.11808349e-19
3.659182332e-19
3.388131789e-21
-2.710505431e-20
0
-8.809142651e-20
-3.388131789e-20
0
0
4.065758147e-20
0
-1.355252716e-20
3.997995511e-19
-2.168404345e-19
2.710505431e-20
3.862470239e-19
-4.33680869e-19
7.657177843e-19
3.252606517e-19
-2.168404345e-19
6.979551485e-19
-6.09863722e-20
3.388131789e-20
1.43995601e-19
-7.623296525e-21
1.443344142e-18
-9.656175599e-20
8.470329473e-22
-2.710505431e-20
4.79945492e-20
1.078595131e-19
-7.182839393e-19
-1.270549421e-20
2.007468085e-19
-6.844026214e-19
7.623296525e-21
-3.981054852e-20
4.065758147e-20
-1.28749008e-19
0
0
3.388131789e-20
0
0
-3.591419696e-19
3.997995511e-19
-2.168404345e-19
-2.559455807e-20
4.050653184e-19
0
6.776263578e-21
-7.3861273e-19
0
-2.032879073e-20
2.710505431e-20
-2.168404345e-19
1.538211832e-18
2.168404345e-19
0.02728905089
2.168404345e-19
0
0.02728892314
-2.168404345e-19
2.168404345e-19
0.02728895264
-2.168404345e-19
-2.168404345e-19
0.02728895263
-2.168404345e-19
0
0.02728892317
0
0
0.02728905101
0
-4.216812242e-20
0
1.70140265e-19
-2.205954215e-19
0
-5.797374039e-19
-6.09863722e-20
-2.168404345e-19
-5.692061406e-19
2.913793339e-19
-2.168404345e-19
-8.861367591e-19
-8.402566837e-19
-2.168404345e-19
6.99422464e-19
-3.659182332e-19
-2.168404345e-19
-9.486769009e-20
-1.355252716e-20
-2.168404345e-19
-1.084202172e-19
1.084202172e-19
-2.168404345e-19
1.829591166e-19
-3.04931861e-19
-2.168404345e-19
8.433644691e-20
4.780934301e-19
0
-3.455894425e-19
5.556536134e-19
0
1.172293599e-18
-1.409462824e-18
0
9.486769009e-20
2.168404345e-19
0.0272888733
-2.168404345e-19
-2.168404345e-19
0.02728874585
-2.168404345e-19
0
0.02728877527
0
2.168404345e-19
0.02728877527
-2.168404345e-19
0
0.02728874587
0
0
0.02728887335
0
2.194733029e-19
-2.168404345e-19
5.066658829e-19
-1.490777987e-19
0
1.600393584e-26
3.726944968e-19
-2.168404345e-19
-2.318604348e-19
6.776263578e-21
0
-1.89001615e-19
5.895349313e-19
-2.168404345e-19
7.509945383e-21
-2.303929617e-19
-2.168404345e-19
7.250602028e-19
3.591419696e-19
0
-1.28749008e-19
-2.57498016e-19
0
-2.168404345e-19
5.217722955e-19
0
4.201283418e-19
-6.776263578e-21
0
-6.09863722e-19
-7.318364664e-19
-2.168404345e-19
-9.080193195e-19
7.047314121e-19
-2.168404345e-19
7.3861273e-19
-2.168404345e-19
0.02728891811
-2.168404345e-19
-2.168404345e-19
0.02728879061
-4.33680869e-19
-2.168404345e-19
0.02728881996
-2.168404345e-19
-2.168404345e-19
0.02728881998
2.168404345e-19
0
0.02728879064
2.168404345e-19
0
0.02728891813
-2.168404345e-19
-4.024324206e-19
-2.168404345e-19
-4.743384505e-19
7.078390586e-20
2.168404345e-19
1.972454105e-19
7.686528274e-19
0
1.209109962e-18
-8.364154649e-19
0
-7.453889936e-19
-3.726944968e-19
0
-3.794707604e-19
4.990694979e-19
0
1.11808349e-18
3.753273663e-19
0
4.607859233e-19
-2.672955496e-19
-2.168404345e-19
-1.144454796e-18
-4.433921757e-19
0
3.534884629e-20
-4.351483974e-19
0
-3.388131789e-20
7.860465751e-19
0
4.743384505e-20
-2.430304618e-18
-2.168404345e-19
-3.659182332e-19
-2.168404345e-19
0.02728892885
-2.168404345e-19
-2.168404345e-19
0.02728880135
-2.168404345e-19
2.168404345e-19
0.0272888307
-2.168404345e-19
-2.168404345e-19
0.02728883071
-2.168404345e-19
0
0.02728880135
-2.168404345e-19
0
0.02728892886
0
3.497328363e-19
0
-3.161968198e-19
5.323035527e-19
-2.168404345e-19
7.671853038e-19
-6.51988823e-19
-2.168404345e-19
7.747394855e-20
3.45589439e-19
0
6.964876291e-19
1.355252716e-20
-2.168404345e-19
2.060545039e-18
-1.255076179e-18
0
-8.22864563e-19
7.860465751e-19
0
7.182839393e-19
-9.351243738e-19
0
-2.371692252e-19
8.199278929e-19
2.168404345e-19
-1.185846126e-18
-4.269046054e-19
0
3.252606517e-19
7.928228386e-19
0
-1.626303259e-19
-7.115076757e-19
-2.168404345e-19
8.199278929e-19
2.168404345e-19
0.02728891528
0
0
0.0272887878
0
2.168404345e-19
0.02728881718
0
0
0.02728881717
0
0
0.02728878778
0
0
0.02728891525
0
4.065758147e-19
0
4.540096597e-19
-8.131516294e-20
0
1.754490371e-19
-8.243760806e-21
-2.168404345e-19
9.102643467e-20
-5.567776517e-20
-2.168404345e-19
8.160864534e-19
-3.997995511e-19
0
-3.726944968e-19
-4.283719998e-19
-2.168404345e-19
2.025199185e-18
2.032879073e-20
-2.168404345e-19
-3.862470239e-19
-8.809142651e-20
-2.168404345e-19
-2.710505431e-20
4.065758147e-20
0
-3.373458273e-19
-4.419244842e-19
-2.168404345e-19
-2.710505431e-20
-7.928228386e-19
0
-4.201283418e-19
1.179069863e-18
0
-5.421010862e-19
-2.168404345e-19
0.02728899117
0
0
0.02728886357
2.168404345e-19
0
0.02728889293
0
0
0.0272888929
0
-2.168404345e-19
0.02728886351
0
-2.168404345e-19
0.02728899108
-2.168404345e-19
-7.047314121e-19
0
-1.9371071e-18
1.565316887e-18
2.168404345e-19
3.659182332e-19
-7.521652572e-19
0
6.322248768e-19
1.470454347e-19
0
-9.34220501e-19
2.02610281e-18
0
1.568252877e-18
1.402686561e-18
0
-7.521652572e-19
-8.694100482e-21
-4.106069931e-21
1.360662136e-20
5.034190069e-21
4.743384505e-20
1.919348824e-21
-3.642241673e-20
1.829591166e-19
3.476900173e-20
-3.411091594e-20
-1.355252716e-20
-5.863731457e-20
5.402114878e-20
1.423015351e-19
1.28749008e-19
-2.032879073e-20
1.219727444e-19
-1.143494479e-19
-4.106117441e-21
0
3.831411352e-21
-7.453889936e-20
0
-9.678219595e-20
1.975419834e-19
0
-3.900784697e-19
1.93566826e-19
0
-6.534661321e-19
-5.892574298e-20
-2.168404345e-19
0
-2.778268067e-19
0
-1.016439537e-19
3.436125857e-21
-6.776263578e-21
-1.952367859e-20
-1.742022275e-21
8.131516294e-20
4.913394664e-20
-1.694066997e-20
8.816312719e-20
7.629332848e-21
2.316365951e-20
-1.189560968e-19
1.711965721e-19
5.629987975e-20
3.902983828e-21
7.981290051e-20
8.904039862e-20
-2.799162484e-20
-2.673801753e-20
-1.952975185e-20
-1.05475305e-19
3.29863353e-20
-4.235164736e-21
8.131516294e-20
3.393529926e-20
-5.195673115e-20
0
-1.28493555e-20
-1.040411912e-19
-1.060751449e-20
9.740878893e-20
-9.605039298e-20
1.694065895e-19
-6.121034097e-21
-8.464931791e-20
-6.776263578e-21
-6.669249282e-20
-4.330958657e-20
0
-1.738375637e-20
3.00500743e-20
-2.168404345e-19
5.102788313e-19
-2.177267217e-19
0
8.248844807e-20
3.34981901e-19
-2.168404345e-19
-8.081479401e-19
1.174352662e-18
0
1.24094243e-18
6.09863722e-19
-2.168404345e-19
7.589415207e-19
-2.445732718e-20
4.33680869e-19
-5.096583552e-20
3.737741707e-20
2.788563439e-19
-3.207927381e-20
2.456395547e-20
2.885776484e-19
6.207319021e-20
2.69252895e-20
-4.354534994e-19
2.512324756e-20
-1.808657995e-19
-7.734063137e-20
8.6685078e-20
4.319868031e-20
-9.192281637e-20
-1.575961255e-19
-2.055254864e-20
-2.887814943e-20
1.519863882e-20
1.699464498e-20
-4.07462121e-19
-8.6621592e-21
3.663837886e-20
3.127377835e-19
-4.232751688e-20
6.298025339e-20
8.809142651e-20
4.404571326e-20
1.410393847e-19
-1.0253026e-19
2.732099845e-20
1.44842634e-19
-7.542544695e-20
-1.091590985e-19
-2.975706749e-20
-2.168404345e-19
-9.48676757e-20
6.09863722e-20
0
2.110938173e-19
5.243740545e-20
-2.168404345e-19
1.173008297e-21
2.799141101e-20
0
-8.30249563e-19
-7.162246464e-19
0
-4.537515991e-20
6.301925128e-19
-2.168404345e-19
6.640738306e-19
-6.728263867e-21
-5.099928992e-19
-4.682658698e-20
-3.303428494e-20
1.060756091e-20
1.015039449e-21
7.587759033e-20
8.838600375e-19
-4.49407053e-20
1.456658423e-19
-7.589415207e-19
1.527536868e-19
5.938822326e-20
-1.016439537e-19
-5.84614521e-20
-7.835862595e-20
2.012296341e-19
4.506105725e-20
-5.341107539e-20
1.240331504e-19
2.327765804e-20
-7.686404502e-20
-4.557816655e-19
7.395579135e-20
1.18740867e-19
-7.719801352e-20
-5.80298749e-20
2.42795833e-19
-5.892694712e-20
-5.723079934e-20
-5.196405938e-20
1.11808349e-18
1.508601279e-19
3.089675362e-19
3.27318925e-19
-1.358612698e-19
6.09863722e-20
0
-4.154386023e-20
1.170880825e-20
0
-2.206717436e-19
2.710505431e-20
-2.168404345e-19
-3.862470239e-19
1.355252716e-20
0
5.14110507e-19
8.131516294e-20
-2.168404345e-19
2.91637103e-20
7.188096365e-20
0
1.034119045e-18
-1.097310071e-19
-6.659093742e-20
1.355897001e-19
-1.086120434e-19
6.611288645e-19
-6.028321485e-20
-2.410059634e-20
-8.05203165e-19
-8.310514787e-20
2.202285659e-20
-1.691207615e-19
3.671048204e-20
-1.274865687e-19
1.62917645e-19
8.128338323e-20
-2.865525439e-20
1.443619582e-19
-1.016376518e-20
7.284483346e-20
6.776263578e-21
2.117582368e-20
-9.929468084e-20
-1.508504612e-19
-5.082197684e-21
9.740878893e-20
-3.134808678e-19
-2.55069072e-20
-1.364844594e-20
-3.117081246e-19
1.569170688e-19
1.569170645e-19
-2.18613097e-19
-8.828325252e-20
-1.848450036e-19
-3.541388511e-19
1.924927941e-19
-4.886997898e-20
0
6.776265019e-20
-9.096476289e-20
0
-2.806284361e-19
0
-2.168404345e-19
-6.602425186e-19
9.536812685e-19
-2.168404345e-19
-2.601570818e-19
5.827586677e-19
0
1.111307671e-18
3.320369153e-19
-2.168404345e-19
8.402566837e-19
1.385154044e-19
4.357412644e-19
4.56918245e-20
2.263011018e-20
4.917221839e-19
5.994747249e-20
5.152513408e-20
4.154114928e-19
4.25196252e-20
7.458685813e-20
6.602425204e-19
1.050002979e-19
-9.140746607e-20
6.128091517e-19
-1.004294465e-19
-1.462171681e-19
1.090980285e-18
2.690695633e-20
1.694065895e-21
1.355252716e-20
9.492166337e-20
1.500327805e-19
-9.163602219e-20
3.54794822e-20
-7.407547842e-20
7.521652572e-19
-4.995083332e-20
2.839478441e-19
4.357396356e-19
5.929230631e-21
-1.694065895e-20
-1.151964808e-19
-6.560365878e-21
1.033380196e-19
2.439454888e-19
8.937097281e-20
-6.776263578e-20
0
-1.867904521e-19
-1.016439537e-19
0
-3.019869708e-19
2.710505431e-20
-2.168404345e-19
-6.602424465e-19
1.791277325e-19
-2.168404345e-19
-9.869907165e-20
4.81114714e-19
-2.168404345e-19
1.005833257e-18
3.388131789e-19
0
-1.620055184e-20
1.329841727e-19
-9.318971515e-19
2.764337164e-21
1.110153661e-19
6.605257578e-19
1.417424323e-19
-1.027789153e-19
-1.710076132e-20
-3.080800512e-19
4.019489762e-21
-2.29803326e-20
1.179537978e-19
2.342707013e-21
6.546457578e-19
3.39459847e-20
5.759824041e-20
-9.251208875e-19
2.72763822e-19
1.694065895e-21
-9.486769009e-20
-4.235164736e-21
4.912791094e-20
-2.303929617e-19
5.929230631e-21
6.776263578e-21
-2.981555974e-19
-1.6093626e-20
-9.14795583e-20
0
-3.388131789e-21
-1.948175779e-20
-2.57498016e-19
4.065758147e-20
-2.286988958e-20
-3.388131789e-20
-8.978549241e-20
-1.355252716e-19
-2.168404345e-19
2.032879073e-20
-4.065758147e-20
0
6.776263578e-20
-4.540096597e-19
2.168404345e-19
1.897353802e-19
0
0
-7.860465751e-19
3.388131789e-19
0
-1.151964808e-19
-3.726944968e-19
0
1.016439537e-19
-8.470329473e-22
1.016439537e-19
3.388131789e-21
2.371692252e-20
1.016439537e-19
-1.185846126e-20
3.642241673e-20
-2.100641709e-19
-3.388131789e-20
-2.964615315e-20
-3.388131789e-20
3.134021905e-20
1.685595565e-19
-1.016439537e-19
6.09863722e-20
6.437450399e-20
2.710505431e-20
1.253608762e-19
1.6093626e-20
1.355252716e-20
2.371692252e-20
6.860966873e-20
-4.878909776e-19
5.251604273e-20
-5.082197684e-21
9.486769009e-20
1.43455772e-20
-1.541060135e-19
2.168404345e-19
-3.642241673e-20
1.643243918e-19
-2.981555974e-19
5.759824041e-20
-1.660184577e-19
-1.965116438e-19
1.27901975e-19
-8.131516294e-20
0
7.453889936e-20
-2.846030703e-19
-2.168404345e-19
-5.353248227e-19
1.355252716e-19
0
-4.928234609e-19
-2.661180598e-19
-2.168404345e-19
1.219727444e-19
6.91178885e-19
0
2.507217524e-19
1.219727444e-18
0
0
-7.623296525e-21
3.862470239e-19
5.082197684e-20
-1.101142831e-20
-2.371692252e-19
-1.270549421e-20
1.185846126e-20
-2.710505431e-20
7.379984367e-20
-1.281347146e-20
4.743384505e-20
3.134021905e-20
1.219727444e-19
-1.355252716e-19
2.541098842e-20
5.505714157e-20
6.776263578e-21
-8.216219588e-20
-9.486769009e-20
1.558540623e-19
4.235164736e-21
-4.65868121e-20
1.219727444e-19
4.828087799e-20
-6.860966873e-20
-2.100641709e-19
6.830254542e-21
-5.849926432e-20
2.913793339e-19
-1.694065895e-20
5.505714157e-20
2.778268067e-19
-1.685595565e-19
2.117582368e-19
2.236166981e-19
-7.623296525e-20
2.100641709e-19
0
-8.809142651e-20
1.355252716e-20
0
-1.355252716e-19
1.28749008e-19
0
-3.91993605e-19
-5.092494509e-19
0
-2.032879073e-20
7.453889936e-20
0
3.930232875e-19
5.014435048e-19
0
-8.538092108e-19
-4.48927462e-20
3.388131789e-19
-2.371692252e-20
-2.541098842e-21
3.901499786e-19
-3.144820139e-20
4.087355262e-20
4.123223778e-19
4.150461442e-20
-5.082197684e-21
-2.486623273e-19
1.606831477e-19
8.890130189e-20
2.991852433e-19
-1.451125729e-19
-9.450653675e-20
2.942523701e-19
2.506831385e-20
4.743384505e-20
-9.825582188e-19
-6.860966873e-20
-2.117582368e-20
-8.238308476e-19
2.128380602e-20
-1.865632196e-19
1.704362899e-19
-3.546739734e-20
2.106783724e-20
-2.866624954e-19
6.182342893e-21
-2.345909688e-19
6.291628669e-19
-1.13232476e-19
6.909554833e-20
-9.649299863e-21
4.184728898e-20
-2.303929617e-19
-2.168404345e-19
-3.523657061e-19
-2.439454888e-19
0
-8.131516294e-20
0
0
1.800858477e-19
-2.681772742e-19
0
-7.928228386e-19
1.11808349e-18
0
-3.523657061e-19
0
-2.168404345e-19
-9.486769009e-20
-5.166900978e-20
-6.09863722e-20
-7.792703115e-20
-6.013933926e-20
1.355252716e-20
-2.032879073e-20
-4.48927462e-20
-2.236166981e-19
7.444777644e-20
-2.53198655e-20
6.234162492e-19
-1.490777987e-19
1.389134033e-19
-8.402566837e-19
1.838061496e-19
3.303428494e-20
-3.320369153e-19
-1.050320855e-19
1.033380196e-19
-2.778268067e-19
1.168905467e-19
-1.135024149e-19
6.844026214e-19
-8.470329473e-21
6.945670167e-20
-2.57498016e-19
6.554549995e-20
-1.561780253e-19
-6.505213035e-19
-5.759824041e-20
1.168905467e-19
2.371692252e-19
4.150461442e-20
-2.007468085e-19
3.320369153e-19
1.778769189e-20
6.09863722e-20
-2.168404345e-19
1.897353802e-19
-3.117081246e-19
0
-2.303929617e-19
-2.846030703e-19
0
1.067924937e-20
3.416864567e-19
0
2.168404345e-19
-1.355252716e-20
-2.168404345e-19
-7.250602028e-19
7.928228386e-19
-2.168404345e-19
-1.016439537e-19
8.893845946e-20
1.558540623e-19
2.710505431e-20
1.482307658e-19
-1.084202172e-19
1.143494479e-19
2.879912021e-20
-3.320369153e-19
5.028204699e-21
-7.533193932e-20
3.591419696e-19
7.623296525e-21
-4.997494389e-20
-1.28749008e-19
-8.470329473e-22
-1.007969207e-19
-6.301925128e-19
-1.677125236e-19
-1.194316456e-19
-1.321371398e-18
-8.470329473e-21
-7.199780052e-20
8.809142651e-20
-2.879912021e-20
2.879912021e-20
6.776263578e-21
-1.494556541e-19
2.036657628e-19
-4.201283418e-19
5.929230631e-21
-6.860966873e-20
5.62429877e-19
-1.185846126e-19
1.617832929e-19
9.486769009e-20
-5.082197684e-21
2.100641709e-19
-2.168404345e-19
1.219727444e-19
-4.133520783e-19
-2.168404345e-19
-1.219727444e-19
-3.523657061e-19
2.168404345e-19
-9.096453963e-20
-1.258758949e-19
0
2.642742795e-19
5.827586677e-19
0
-3.184843882e-19
-8.67361738e-19
0
-7.521652572e-19
5.082197684e-21
2.913793339e-19
-1.084202172e-19
6.09863722e-20
-2.032879073e-20
9.994988778e-20
-1.050320855e-19
6.369687763e-19
-1.943310832e-19
-4.876737265e-20
-1.694065895e-18
-1.778769189e-20
-1.295960409e-19
-6.708500942e-19
1.321371398e-19
6.09863722e-20
-1.226503708e-18
-3.981054852e-20
-4.065758147e-20
-2.168404345e-19
1.897353802e-19
-1.28749008e-19
-2.168404345e-19
6.776263578e-21
1.965116438e-19
0
3.957100009e-19
-9.462976978e-21
-2.168404345e-19
2.710505431e-20
-2.710505431e-20
0
6.979551485e-19
-3.930232875e-19
0
7.318364664e-19
0
0.02784701787
-2.168404345e-19
-2.168404345e-19
0.02784563549
0
0
0.02784576572
2.168404345e-19
0
0.0278457657
-2.168404345e-19
-2.168404345e-19
0.02784563555
-2.168404345e-19
0
0.02784701808
0
-1.979148081e-19
0
-3.504178624e-20
2.032879073e-19
0
5.38804934e-19
-2.31553593e-19
-2.168404345e-19
3.540128593e-19
4.117038041e-19
-2.168404345e-19
4.11703773e-19
-6.437450399e-19
2.168404345e-19
8.154714525e-19
-4.360018059e-19
0
-7.919560968e-20
-1.965116438e-19
-2.168404345e-19
-2.032879073e-19
-3.930232875e-19
0
-3.726944968e-19
3.04931861e-19
0
8.876905287e-19
-7.115076757e-19
2.168404345e-19
4.540096597e-19
-6.166399856e-19
0
2.642742795e-19
-2.371692252e-19
0
-2.710505431e-20
-2.168404345e-19
0.0278450633
0
0
0.02784369294
-2.168404345e-19
0
0.02784382282
0
-2.168404345e-19
0.02784382284
0
0
0.02784369299
-2.168404345e-19
2.168404345e-19
0.0278450634
-2.168404345e-19
9.462851199e-21
0
-1.796632251e-19
2.032879073e-20
0
-4.495539015e-19
2.100641709e-19
0
4.722035881e-19
-8.584504405e-19
0
2.25937443e-19
-2.032879073e-20
-2.168404345e-19
-1.355252716e-20
-6.776263578e-21
-2.168404345e-19
-7.657177843e-19
0
0
-1.897353802e-19
3.388131789e-20
-2.168404345e-19
6.505213035e-19
-4.065758147e-20
0
-4.551700529e-19
8.278645497e-19
0
-4.269046054e-19
-1.897353802e-19
0
-3.455894425e-19
-1.965116438e-19
0
-1.321371398e-18
0
0.02784530457
0
0
0.02784393362
0
-2.168404345e-19
0.02784406322
0
-2.168404345e-19
0.02784406327
2.168404345e-19
0
0.02784393368
2.168404345e-19
0
0.02784530461
2.168404345e-19
0
-2.168404345e-19
8.528344767e-20
1.682462959e-19
0
2.180008692e-19
3.726944968e-19
0
1.124859754e-18
-3.930232559e-19
-2.168404345e-19
-7.362918921e-19
4.609722682e-19
-2.168404345e-19
3.862470171e-19
-9.041200689e-20
-2.168404345e-19
-9.512125739e-19
-4.472333962e-19
0
-1.394935563e-19
-1.205014623e-18
-2.168404345e-19
-1.065033816e-18
6.505213035e-19
0
1.062858794e-19
-8.652274318e-19
0
-3.726944968e-19
1.029805719e-18
0
-4.381365453e-19
8.696823184e-19
0
-2.007522343e-19
2.168404345e-19
0.02784540518
-2.168404345e-19
-4.33680869e-19
0.02784403368
-2.168404345e-19
2.168404345e-19
0.02784416331
-2.168404345e-19
-2.168404345e-19
0.02784416333
0
0
0.02784403371
0
0
0.02784540518
0
-2.979165674e-20
-2.168404345e-19
-1.086522824e-18
-3.272096498e-20
0
2.044483857e-19
-2.259376749e-19
-2.168404345e-19
-3.500446875e-19
3.432684715e-19
-2.168404345e-19
-3.620229469e-20
3.726944968e-19
-2.168404345e-19
5.87585879e-19
-7.453889936e-20
0
-2.032879073e-20
-6.776263578e-21
0
-1.355252716e-20
-1.219727444e-19
-2.168404345e-19
3.252606517e-19
8.131516294e-20
-2.168404345e-19
-8.472198819e-19
-6.774394231e-19
0
-3.726944968e-19
4.201283418e-19
0
-4.607859233e-19
-9.486769009e-20
-2.168404345e-19
7.724940479e-19
0
0.02784538894
0
0
0.0278440172
2.168404345e-19
-2.168404345e-19
0.02784414695
0
0
0.02784414695
-2.168404345e-19
0
0.02784401719
0
0
0.0278453889
0
7.29149864e-19
0
1.056121968e-18
-9.566134925e-19
-2.168404345e-19
2.247766275e-19
-5.906954187e-19
2.168404345e-19
3.794697114e-19
4.15673095e-19
0
3.953432135e-19
-1.244698049e-18
2.168404345e-19
-1.301228311e-18
-7.612621698e-19
0
5.378565364e-19
-7.182839393e-19
0
-7.928228386e-19
3.997995511e-19
0
-4.065758147e-20
-3.591419696e-19
0
-8.363513076e-20
4.088957825e-19
0
7.589415207e-19
4.743384505e-20
-2.168404345e-19
-3.997995511e-19
-6.437450399e-19
2.168404345e-19
-9.554531645e-19
0
0.02784619208
-2.168404345e-19
2.168404345e-19
0.02784481633
0
0
0.02784494596
0
-2.168404345e-19
0.02784494592
-4.33680869e-19
-2.168404345e-19
0.02784481624
-2.168404345e-19
-2.168404345e-19
0.02784619189
0
3.388131789e-20
0
9.274298255e-20
-8.67361738e-19
0
-1.04819665e-18
-1.084202172e-19
0
1.71934883e-19
-9.376526673e-19
0
8.381324791e-19
2.710505431e-19
-2.168404345e-19
-7.860465751e-19
-1.511106778e-18
-2.168404345e-19
-2.297153353e-18
-1.540541743e-20
-1.666881179e-19
-1.162913779e-20
5.668597733e-20
2.718188581e-21
1.935128267e-20
-6.499221136e-20
-1.355252716e-20
-6.239935133e-20
1.694065895e-21
2.168404345e-19
-5.362403269e-20
-4.287354784e-20
-1.355252716e-20
1.321371398e-19
9.966494224e-20
-1.355252716e-20
-8.385626178e-20
-4.201283418e-19
-2.168404345e-19
-1.462768139e-19
4.33680869e-19
-2.168404345e-19
2.032879458e-19
-6.030874584e-19
2.168404345e-19
8.891419719e-19
-2.262018219e-19
0
-4.430421863e-19
-3.646629467e-20
-2.168404345e-19
4.227130279e-19
-4.743384505e-20
-2.168404345e-19
-2.168404345e-19
5.082188624e-21
-7.593027798e-20
-2.22828485e-20
5.023468357e-20
5.311285441e-19
-6.24155887e-20
-3.811648263e-20
-2.683929554e-21
-1.000798493e-19
-1.576643934e-20
-3.657575408e-19
-2.801720824e-20
-3.153515202e-20
8.669739986e-20
1.553290441e-19
3.651205365e-20
7.863224273e-20
-2.365225911e-20
1.264033299e-20
-4.160356018e-19
-2.032879073e-20
-2.651776105e-20
-4.607859233e-19
2.02638485e-20
-2.025892742e-20
3.686613012e-19
-1.035923147e-20
1.127612996e-20
5.152558066e-20
-1.713604312e-19
4.046275476e-20
-3.320369153e-19
-2.971108808e-20
4.404571326e-20
-1.965116438e-19
1.159783526e-19
-1.897353802e-19
0
5.381882323e-21
-2.344261497e-19
-2.168404345e-19
-4.078661022e-19
-1.897353802e-19
0
-2.181307955e-19
-9.770723163e-19
0
3.862470239e-19
-4.294851806e-19
-2.168404345e-19
-2.032879073e-19
-1.965116438e-19
-2.168404345e-19
-1.428197382e-18
-1.707100701e-20
5.013543947e-20
1.480403703e-20
-1.961164804e-20
-4.078661105e-19
-1.263792033e-20
8.639736062e-20
-6.531021646e-19
1.100467667e-19
-1.243163908e-19
4.147596991e-19
-1.889454146e-20
1.41397404e-20
1.978020562e-19
3.402105985e-20
-3.883360815e-20
2.0457987e-19
-7.955615252e-20
7.321451278e-20
-2.452374514e-19
4.672656945e-20
2.067816832e-20
4.36496069e-19
5.844527336e-20
2.07481146e-20
4.432726891e-19
-7.212772658e-20
1.596369992e-20
-4.078663618e-19
2.978592778e-20
2.498326781e-20
-2.316833741e-19
9.260609333e-20
-7.072755919e-22
-2.452374514e-19
6.889041731e-20
1.829591166e-19
-2.168404345e-19
-2.329737617e-19
3.797322431e-20
0
-4.498144876e-19
2.250245267e-19
-2.168404345e-19
5.485644552e-21
-5.679155215e-19
-2.168404345e-19
-4.010901357e-19
1.897353802e-19
0
2.968585448e-20
-4.743384505e-20
0
-1.917682593e-18
-3.021240673e-20
6.692422528e-19
-3.948575017e-20
1.9487573e-22
5.001495396e-20
1.618556419e-19
-4.971507193e-20
8.753404117e-19
7.518858623e-20
-9.62492506e-21
1.636844468e-20
-6.496166032e-20
2.317794296e-19
-1.224889593e-18
1.009465438e-19
3.259671604e-20
-3.281605987e-19
1.466663404e-19
-7.141150826e-20
-7.057077818e-19
-5.290580075e-20
6.086138016e-20
-1.035154282e-18
-4.62495999e-21
-1.428212759e-19
-2.327397719e-19
-1.241865623e-19
-1.361075566e-19
4.460890248e-19
-6.600114815e-20
1.598210533e-19
1.897353802e-19
7.336449588e-20
-3.777889819e-21
-2.817031233e-19
-1.192357283e-19
-2.561279213e-19
-2.168404345e-19
-2.839556739e-20
1.965116438e-19
0
8.06696132e-21
-2.710505431e-20
0
4.729597261e-19
-2.829897357e-19
0
-1.471417119e-18
8.267041565e-19
0
1.910259514e-19
5.612847459e-19
2.168404345e-19
1.408347131e-18
-8.825449117e-20
-3.847190957e-19
-8.541786604e-20
1.292007671e-20
-3.711694013e-19
2.059851993e-20
-5.811799211e-20
-6.776263578e-21
-9.99301707e-20
-2.045873146e-20
-4.362623129e-19
8.470329473e-20
5.012459135e-20
1.829591166e-19
1.9999653e-19
-6.463434811e-20
0
-1.551173587e-19
1.6093626e-20
3.997995511e-19
5.675120747e-20
-4.860568701e-20
5.827586677e-19
4.319868031e-20
9.613412698e-20
-2.032879073e-19
4.691406716e-20
4.774665238e-21
-6.259977838e-19
-6.776263578e-20
8.667695559e-20
-2.329742267e-19
-8.300922883e-20
9.034462854e-20
3.794707604e-19
5.251604273e-20
2.263346901e-19
0
1.897353802e-19
3.930232875e-19
-2.168404345e-19
4.160507078e-19
-4.214190311e-19
2.168404345e-19
-4.323902916e-20
-1.532726146e-19
-2.168404345e-19
-2.316836509e-19
-3.794707604e-19
-2.168404345e-19
2.113546754e-19
1.558540623e-19
-2.168404345e-19
-1.965116438e-19
1.165973321e-19
4.57883906e-19
1.974148067e-20
9.527023748e-21
6.478506628e-19
1.780789926e-19
-3.275468923e-20
6.327725141e-19
-4.815112188e-20
5.727085138e-20
-2.161952788e-20
1.277044451e-19
3.429077972e-20
4.07865681e-19
-2.021759401e-19
-9.447285669e-21
4.091586453e-19
-4.899772529e-20
-7.0074437e-20
-7.453889936e-20
-4.841073943e-20
3.134021905e-20
3.659182332e-19
-5.789518226e-21
-1.6093626e-20
1.423015351e-19
-1.330462998e-19
-9.514995336e-21
5.702427974e-20
4.573977915e-20
-9.836857542e-21
-2.710505431e-20
8.749714896e-21
-4.48927462e-20
1.626303259e-19
4.404571326e-20
4.187883855e-19
0
2.697591367e-19
3.726944968e-19
-2.168404345e-19
4.228291395e-19
-4.146436684e-19
0
-4.782133247e-19
-5.976028196e-19
2.168404345e-19
-6.34067283e-19
-2.549499641e-20
0
4.607018188e-19
-5.421010862e-20
-2.168404345e-19
-6.776263578e-21
-6.329810777e-20
1.232164784e-18
-2.165794716e-19
7.460900301e-20
3.930232875e-19
-5.909652358e-20
-9.642152496e-20
1.897353802e-19
-2.051777246e-19
1.941699651e-20
-1.64097917e-18
-2.558031795e-19
1.50205286e-19
-1.07855001e-18
3.316452271e-20
1.778769189e-20
-5.161112196e-19
2.597434951e-20
-4.319868031e-20
1.76182853e-19
-1.524659305e-20
-5.590417452e-20
-2.168404345e-19
9.14795583e-20
2.879912021e-20
-3.659182332e-19
1.022061272e-19
-5.621735422e-22
-6.776263578e-21
2.032879073e-20
3.388131789e-21
5.421010862e-20
2.795208726e-20
-3.388131789e-20
6.776263578e-20
-6.437450399e-20
2.032879073e-19
-2.168404345e-19
0
-3.184843882e-19
0
1.694065895e-19
2.168404345e-19
0
-6.635199001e-20
-4.14762724e-19
0
5.421010862e-19
9.486769009e-20
0
-4.404571326e-19
4.269046054e-19
0
-7.657177843e-19
-1.6093626e-20
2.100641709e-19
-4.65868121e-20
-4.573977915e-20
-1.016439537e-19
-2.117582368e-20
1.007969207e-19
-2.168404345e-19
2.639785223e-20
1.277621442e-19
3.388131789e-20
1.43995601e-20
-1.372193375e-19
-2.236166981e-19
8.555032767e-20
-7.284483346e-20
-1.355252716e-20
-6.352747104e-20
-8.470329473e-22
-5.285485591e-19
-1.270549421e-20
-1.863472484e-20
-1.084202172e-19
4.150461442e-20
-3.388131789e-20
1.084202172e-19
-2.541098842e-20
-6.183340515e-20
-4.743384505e-20
3.557538378e-20
2.032879073e-20
3.04931861e-19
-7.623296525e-20
2.710505431e-20
9.486769009e-20
-4.912791094e-20
2.168404345e-19
-2.168404345e-19
-1.355252716e-20
7.453889936e-20
-2.168404345e-19
4.472333962e-19
-2.371692252e-19
0
-1.883278493e-19
3.983920202e-19
-2.168404345e-19
-2.57498016e-19
-4.878909776e-19
-2.168404345e-19