/*--------------------------------*- C++ -*----------------------------------*\
  =========                 |
  \\      /  F ield         | OpenFOAM: The Open Source CFD Toolbox
   \\    /   O peration     | Website:  https://openfoam.org
    \\  /    A nd           | Version:  7
     \\/     M anipulation  |
\*---------------------------------------------------------------------------*/
FoamFile
{
    version     2.0;
    format      ascii;
    class       volScalarField;
    location    "2";
    object      muavg;
}
// * * * * * * * * * * * * * * * * * * * * * * * * * * * * * * * * * * * * * //

dimensions      [1 -1 -1 0 0 0 0];

internalField   nonuniform List<scalar> 
10692
(
8.271806126e-25
1.32348898e-23
-4.549493369e-24
2.895132144e-24
-3.97046694e-23
-8.271806126e-24
9.512577044e-24
-1.32348898e-23
-2.244639621e-23
-9.625402169e-23
-6.6174449e-24
-5.790264288e-24
8.271806126e-25
-6.6174449e-24
9.181704799e-23
-4.301339185e-23
-1.32348898e-23
-8.189088064e-23
0
0
-1.98523347e-23
-1.98523347e-23
-1.058791184e-22
-1.32348898e-22
1.124965633e-22
-1.058791184e-22
-2.664819254e-22
2.598644805e-22
0
-1.32348898e-23
-4.830734777e-22
1.058791184e-22
0
1.98523347e-23
0
3.30872245e-23
-7.031035207e-24
-8.602678371e-23
8.685396432e-24
7.858215819e-24
-7.940933881e-23
1.613002194e-23
-9.098986738e-24
-3.30872245e-23
-2.105967309e-24
-7.77169618e-23
-2.64697796e-23
-5.045801737e-23
4.135903063e-24
-1.124965633e-22
5.128519798e-23
-1.861156378e-23
-3.97046694e-23
7.775497758e-23
4.135903063e-25
0
3.92910791e-23
2.316105715e-23
6.6174449e-24
3.722312756e-24
2.522900868e-23
3.30872245e-23
4.549493369e-24
-2.564259899e-23
0
-2.067951531e-23
2.274746685e-23
1.455837878e-22
-6.203854594e-24
-8.519960309e-23
1.32348898e-23
4.177262093e-23
1.32348898e-23
0
-1.058791184e-22
-1.654361225e-22
-1.058791184e-22
-6.6174449e-24
2.64697796e-23
-1.058791184e-22
1.98523347e-23
-3.97046694e-23
1.058791184e-22
-2.64697796e-23
-6.6174449e-24
0
7.610061635e-22
1.98523347e-23
0
5.227781471e-22
2.357464746e-23
1.257314531e-22
-1.778438317e-23
4.963083675e-24
-3.30872245e-23
1.240770919e-24
2.067951531e-23
2.64697796e-23
3.474158573e-23
-4.63221143e-23
-3.97046694e-23
-5.335314951e-23
-1.240770919e-23
1.32348898e-23
1.083606602e-22
-1.364848011e-23
3.30872245e-23
2.481541838e-24
8.271806126e-25
2.779326858e-22
3.30872245e-24
-1.654361225e-23
4.63221143e-23
-1.406207041e-23
2.233387654e-23
1.32348898e-23
-2.564259899e-23
-2.771055052e-23
6.6174449e-24
1.075334796e-23
-4.218621124e-23
0
3.26736342e-23
2.316105715e-23
6.6174449e-24
4.425416277e-23
-2.64697796e-23
-1.058791184e-22
4.63221143e-23
-1.32348898e-23
-1.058791184e-22
1.98523347e-23
1.124965633e-22
-1.058791184e-22
-1.501902122e-23
2.797168172e-22
0
0
-4.896909226e-22
-1.058791184e-22
6.6174449e-24
2.64697796e-22
0
2.64697796e-23
-1.996485427e-23
-1.018570472e-23
-3.290020136e-23
-9.098986738e-24
0
1.078983504e-23
3.666358938e-23
-4.833313495e-24
6.677812045e-23
-5.38884355e-23
-2.92951707e-22
-1.620299588e-23
-4.647264978e-23
2.713152409e-22
-1.922001428e-24
-3.004614137e-23
-2.448454613e-22
8.256752589e-23
-9.790838301e-23
2.616486109e-22
-6.429352062e-23
-8.644037401e-23
-4.896909226e-22
2.353816038e-23
5.595381827e-25
-2.995691519e-22
4.669615904e-23
1.625121505e-22
-2.562962197e-22
1.827094741e-23
3.045667624e-24
7.477712737e-22
1.929279429e-23
1.619814491e-22
2.249931266e-22
2.2184869e-24
-3.30872245e-23
-1.058791184e-22
-1.32348898e-23
-5.29395592e-23
-1.058791184e-22
-1.32348898e-23
-1.32348898e-23
-1.058791184e-22
-2.779326858e-22
2.514629062e-22
0
-1.32348898e-23
-2.845501307e-22
-1.058791184e-22
-1.98523347e-23
4.896909226e-22
-1.058791184e-22
-5.161607022e-22
1.364848011e-23
0
-1.737079286e-23
3.101927297e-23
0
4.756288522e-23
-3.598235665e-23
1.32348898e-23
2.839178333e-23
-2.749184339e-24
0
4.177262093e-23
-1.902515409e-23
-4.63221143e-23
3.019209236e-23
-7.527343574e-23
-3.30872245e-23
1.761894705e-22
4.135903063e-25
5.227781471e-22
-5.128519798e-23
-2.936491175e-23
-2.64697796e-23
-5.95570041e-23
4.921724645e-23
0
-7.106455859e-23
3.235748357e-24
-2.64697796e-23
2.192028623e-23
2.564259899e-23
-6.6174449e-24
-9.098986738e-24
-4.5908524e-23
-2.779326858e-22
-2.109310562e-23
-1.98523347e-23
1.058791184e-22
9.264422861e-23
-1.654361225e-22
0
0
1.98523347e-23
1.058791184e-22
-1.32348898e-23
7.610061635e-22
-1.058791184e-22
6.6174449e-24
2.382280164e-22
-1.058791184e-22
5.095432573e-22
2.514629062e-22
-1.058791184e-22
5.029258124e-22
8.933550616e-23
2.382280164e-22
3.887748879e-23
1.695720256e-23
2.316105715e-22
3.30872245e-23
-3.30872245e-24
2.514629062e-22
-2.77881113e-23
1.703476334e-23
6.6174449e-24
1.873564087e-22
-7.734138727e-23
2.580803511e-22
-9.595295106e-23
-9.181704799e-23
4.963083675e-22
2.192028623e-23
2.067951531e-23
-2.64697796e-22
2.481541838e-24
-9.926167351e-24
-6.6174449e-24
-8.271806126e-25
1.654361225e-24
-6.6174449e-24
-2.508305877e-23
2.298102604e-22
0
4.177262093e-23
-2.440182807e-23
1.32348898e-23
-2.357464746e-23
7.651420666e-23
2.514629062e-22
1.240770919e-24
-1.98523347e-23
0
-6.6174449e-23
-1.32348898e-23
-1.058791184e-22
0
1.98523347e-23
1.058791184e-22
-1.32348898e-23
2.713152409e-22
-2.117582368e-22
1.32348898e-23
2.64697796e-22
-2.117582368e-22
5.29395592e-22
2.249931266e-22
0
4.63221143e-22
-4.094544032e-23
1.32348898e-23
9.719372197e-23
-4.549493369e-24
9.859992902e-22
-6.452008778e-23
-8.271806126e-25
-1.32348898e-23
3.196814314e-23
7.391097526e-23
-4.830734777e-22
-9.926167351e-24
1.368983914e-22
-4.764560328e-22
5.790264288e-24
-2.64697796e-23
2.64697796e-23
-8.768114493e-23
1.32348898e-23
1.058791184e-22
3.30872245e-23
0
1.058791184e-22
-2.448454613e-22
2.64697796e-22
-1.058791184e-22
-1.68290253e-23
2.815268213e-22
-1.058791184e-22
6.6174449e-24
-5.029258124e-22
1.058791184e-22
-1.32348898e-23
1.98523347e-23
0
1.058791184e-21
0
1.862606498e-05
1.058791184e-22
0
1.862597948e-05
-1.058791184e-22
1.058791184e-22
1.862599923e-05
0
-1.058791184e-22
1.862599922e-05
-1.058791184e-22
0
1.86259795e-05
0
-1.058791184e-22
1.862606506e-05
0
-3.611056384e-23
0
1.334901465e-22
-1.395369788e-22
0
-3.909998936e-22
-4.63221143e-23
-2.117582368e-22
-3.904292491e-22
1.786710123e-22
-1.058791184e-22
-5.984232783e-22
-5.691002614e-22
-2.117582368e-22
4.72121061e-22
-2.580803511e-22
1.058791184e-22
-6.6174449e-23
-1.32348898e-23
-1.058791184e-22
-7.940933881e-23
8.602678371e-23
-1.058791184e-22
1.191140082e-22
-1.98523347e-22
-1.058791184e-22
5.898637314e-23
3.182079862e-22
0
-2.382280164e-22
3.771943593e-22
0
8.00710833e-22
-9.727644004e-22
0
6.6174449e-23
0
1.862594612e-05
0
-1.058791184e-22
1.862586081e-05
-2.117582368e-22
0
1.86258805e-05
0
0
1.862588051e-05
-2.117582368e-22
0
1.862586082e-05
0
1.058791184e-22
1.862594615e-05
-1.058791184e-22
1.539982903e-22
-1.058791184e-22
3.403428496e-22
-9.264422861e-23
-1.058791184e-22
1.071464242e-29
2.514629062e-22
-1.058791184e-22
-1.544838114e-22
-6.6174449e-24
-1.058791184e-22
-1.047378099e-22
3.97046694e-22
0
1.437614247e-23
-1.522012327e-22
-1.058791184e-22
4.963083675e-22
2.448454613e-22
-1.058791184e-22
-8.602678371e-23
-1.786710123e-22
0
-1.455837878e-22
3.639594695e-22
0
2.779326858e-22
0
-1.058791184e-22
-4.235164736e-22
-4.963083675e-22
0
-6.220398206e-22
4.896909226e-22
0
5.161607022e-22
-2.117582368e-22
1.862597611e-05
-1.058791184e-22
-1.058791184e-22
1.862589078e-05
0
-1.058791184e-22
1.862591042e-05
0
0
1.862591044e-05
1.058791184e-22
0
1.862589079e-05
0
-1.058791184e-22
1.862597613e-05
0
-2.86347189e-22
0
-3.242548001e-22
4.575147404e-23
0
1.268727626e-22
5.207259244e-22
-1.058791184e-22
8.118935012e-22
-5.670480399e-22
0
-5.095432573e-22
-2.448454613e-22
1.058791184e-22
-2.448454613e-22
3.377198721e-22
0
7.543887186e-22
2.532599645e-22
0
3.176373552e-22
-1.913352618e-22
0
-7.730997558e-22
-3.023502427e-22
-1.058791184e-22
2.213495038e-23
-3.000676362e-22
0
-2.64697796e-23
5.426304818e-22
0
3.30872245e-23
-1.654591407e-21
-3.176373552e-22
-2.580803511e-22
0
1.862598331e-05
-1.058791184e-22
-1.058791184e-22
1.862589796e-05
-2.117582368e-22
0
1.862591762e-05
-2.117582368e-22
0
1.862591762e-05
-1.058791184e-22
0
1.862589797e-05
-1.058791184e-22
0
1.862598331e-05
1.058791184e-22
2.298135131e-22
-1.058791184e-22
-2.20087588e-22
3.645301099e-22
0
5.382956466e-22
-4.390339731e-22
1.058791184e-22
5.088734057e-23
2.514629039e-22
-1.058791184e-22
4.940257578e-22
1.32348898e-23
-2.117582368e-22
1.40769364e-21
-8.691678229e-22
0
-5.53814238e-22
5.360130369e-22
0
4.896909226e-22
-6.286572655e-22
-1.058791184e-22
-1.588186776e-22
5.624828165e-22
-1.058791184e-22
-7.940933881e-22
-2.977850205e-22
1.058791184e-22
2.183756817e-22
5.360130369e-22
0
-1.058791184e-22
-4.896909226e-22
-2.117582368e-22
5.492479267e-22
0
1.862597422e-05
-1.058791184e-22
0
1.862588889e-05
1.058791184e-22
0
1.862590856e-05
-1.058791184e-22
0
1.862590855e-05
0
0
1.862588888e-05
1.058791184e-22
-1.058791184e-22
1.86259742e-05
0
2.845501307e-22
0
3.176373552e-22
-5.95570041e-23
0
1.179726658e-22
-2.282594805e-24
-2.117582368e-22
5.088731309e-23
-2.875248106e-23
0
5.538130022e-22
-2.713152409e-22
0
-2.580803511e-22
-3.000675465e-22
0
1.385560693e-21
1.98523347e-23
-1.058791184e-22
-2.64697796e-22
-6.6174449e-23
0
-1.98523347e-23
1.32348898e-23
-1.058791184e-22
-2.227106293e-22
-3.066849627e-22
-1.058791184e-22
-2.64697796e-23
-5.360130369e-22
-2.117582368e-22
-2.845501307e-22
8.205631677e-22
0
-3.771943593e-22
-1.058791184e-22
1.862602502e-05
-2.117582368e-22
0
1.862593961e-05
-1.058791184e-22
-1.058791184e-22
1.862595926e-05
0
1.058791184e-22
1.862595924e-05
0
-1.058791184e-22
1.862593957e-05
1.058791184e-22
-1.058791184e-22
1.862602496e-05
0
-4.698385879e-22
0
-1.312768358e-21
1.078643519e-21
0
2.448454613e-22
-5.029258124e-22
-1.058791184e-22
4.239795921e-22
9.21811101e-23
1.058791184e-22
-6.444066975e-22
1.383045984e-21
-1.058791184e-22
1.069974485e-21
9.462946208e-22
-2.117582368e-22
-5.161607022e-22
-5.942977809e-24
-1.141284741e-23
9.713883777e-24
4.352258687e-24
3.97046694e-23
2.635266861e-24
-2.481541838e-23
1.32348898e-22
2.359724001e-23
-2.22466185e-23
-6.6174449e-24
-4.090720563e-23
3.567860844e-23
1.058791184e-22
8.768114493e-23
-1.406207041e-23
8.602678371e-23
-7.858215819e-23
1.822010622e-24
0
-5.995625233e-24
-4.63221143e-23
-1.058791184e-22
-6.421279306e-23
1.336887298e-22
0
-2.653196387e-22
1.263532958e-22
-1.058791184e-22
-4.559818627e-22
-4.364248426e-23
-2.117582368e-22
0
-1.98523347e-22
0
-6.6174449e-23
2.265177147e-24
6.6174449e-24
-1.218728131e-23
-6.107906983e-25
5.29395592e-23
3.102331102e-23
-1.240771657e-23
5.960497358e-23
6.62148336e-24
1.483571779e-23
-7.998312559e-23
1.174404601e-22
3.715443404e-23
7.287148261e-24
5.372834601e-23
6.119620762e-23
-2.109598167e-23
-1.810231523e-23
-1.508647664e-23
-6.679622849e-23
2.255027096e-23
-2.067951531e-24
5.29395592e-23
2.253510781e-23
-3.344323492e-23
6.6174449e-24
-8.449811737e-24
-7.137311737e-23
-7.239157191e-24
6.700162962e-23
-6.548688367e-23
1.191140082e-22
-5.338280174e-24
-5.604705342e-23
-6.6174449e-24
-4.64045055e-23
-4.151454335e-23
0
-6.216977673e-25
5.995737512e-24
-1.058791184e-22
3.534031623e-22
-1.335923553e-22
-1.058791184e-22
5.891855162e-23
2.37606286e-22
0
-5.451173965e-22
8.033894156e-22
-1.058791184e-22
8.416588979e-22
4.235164736e-22
0
5.161607022e-22
-1.572845222e-23
3.044024654e-22
-3.450599929e-23
2.397711312e-23
1.866277523e-22
-2.193140366e-23
1.571643164e-23
2.058583936e-22
4.110426378e-23
1.824442146e-23
-3.002719727e-22
1.618758879e-23
-1.227840525e-22
-6.545687842e-23
5.867224094e-23
2.895132144e-23
-6.679625428e-23
-1.08557888e-22
-1.380118486e-23
-1.572215299e-23
1.096973932e-23
1.095458236e-23
-2.79176156e-22
-4.924707444e-24
2.603395829e-23
2.130976133e-22
-2.85215872e-23
4.213672252e-23
5.29395592e-23
2.936491175e-23
9.632207347e-23
-8.065280896e-23
1.900291105e-23
9.802090259e-23
-6.080063572e-23
-7.528443712e-23
-2.166221406e-23
0
-5.955699447e-23
4.63221143e-23
0
1.336882661e-22
3.060022364e-23
-1.058791184e-22
1.435280722e-24
1.447839365e-23
-1.058791184e-22
-5.542219286e-22
-4.737772965e-22
0
-2.171753132e-23
4.301339185e-22
-1.058791184e-22
4.499862532e-22
-3.93867367e-24
-3.532118669e-22
-3.200527023e-23
-2.398823776e-23
1.385663315e-23
6.077497175e-25
5.078375142e-23
6.061098083e-22
-3.080288487e-23
9.908061789e-23
-5.161607022e-22
1.016856588e-22
4.092625361e-23
-7.940933881e-23
-3.994555189e-23
-5.388717367e-23
1.54066705e-22
3.038645541e-23
-3.659317634e-23
8.208881957e-23
1.689657967e-23
-5.378897681e-23
-3.089629182e-22
4.939222014e-23
7.984410975e-23
-5.005265536e-23
-4.023872012e-23
1.675164525e-22
-3.702584464e-23
-3.919515027e-23
-3.35483118e-23
7.676236084e-22
1.038518019e-22
2.102020694e-22
2.297450992e-22
-9.361124424e-23
3.30872245e-23
0
-2.771323129e-23
2.009014288e-24
0
-1.395880941e-22
1.32348898e-23
-1.058791184e-22
-2.713152409e-22
6.6174449e-24
-1.058791184e-22
3.540251587e-22
5.95570041e-23
-1.058791184e-22
3.783945327e-23
5.167941453e-23
1.058791184e-22
7.068122469e-22
-7.517151686e-23
-4.281379158e-23
9.374457214e-23
-7.399428621e-23
4.506079966e-22
-3.988268459e-23
-1.64668694e-23
-5.457392678e-22
-5.829704787e-23
1.571643161e-23
-1.168488639e-22
2.4179362e-23
-8.73880098e-23
9.73799785e-23
5.546478175e-23
-1.926073575e-23
9.532372075e-23
-6.368549547e-24
4.963083675e-23
1.32348898e-23
1.406207041e-23
-6.779043151e-23
-1.08366092e-22
-4.135903063e-24
6.700162962e-23
-2.208627094e-22
-1.693801707e-23
-7.839030327e-24
-2.051407919e-22
1.087520272e-22
1.066840728e-22
-1.546882063e-22
-5.827785446e-23
-1.256930711e-22
-2.539502028e-22
1.32326903e-22
-4.267820182e-23
-2.117582368e-22
5.955701375e-23
-5.888733861e-23
0
-1.911882629e-22
-6.6174449e-24
-1.058791184e-22
-4.493645001e-22
6.505666658e-22
0
-1.82401521e-22
3.97046694e-22
-2.117582368e-22
7.523150974e-22
2.316105715e-22
-2.117582368e-22
5.624828165e-22
9.41914247e-23
3.004644942e-22
3.123566404e-23
1.390325075e-23
3.314939274e-22
4.098379176e-23
3.456357047e-23
2.938463933e-22
2.873187135e-23
5.148239997e-23
4.427470563e-22
7.076761786e-23
-6.182519802e-23
4.274385667e-22
-6.731926894e-23
-9.977650385e-23
7.523160367e-22
1.854557201e-23
1.240770919e-24
6.6174449e-24
6.513490395e-23
1.01318488e-22
-6.453046327e-23
2.483461538e-23
-4.996764284e-23
5.161607022e-22
-3.348468417e-23
1.939354621e-22
3.004634049e-22
4.963083675e-24
-1.32348898e-23
-6.6174449e-23
-3.330996545e-24
7.155112299e-23
1.588186776e-22
6.116729728e-23
-3.97046694e-23
-2.117582368e-22
-1.329706669e-22
-6.6174449e-23
0
-2.123800311e-22
6.6174449e-24
0
-4.559818967e-22
1.118747618e-22
-1.058791184e-22
-6.679624873e-23
3.242548001e-22
-1.058791184e-22
6.85519465e-22
2.448454613e-22
0
-1.448840637e-23
9.016268677e-23
-6.40251145e-22
2.399236517e-24
7.423394201e-23
4.516279118e-22
9.713628178e-23
-7.066650123e-23
-1.159333924e-23
-2.095313571e-22
1.925258228e-24
-2.772564831e-23
7.938727898e-23
1.588172944e-24
4.354953159e-22
2.277231526e-23
3.887748879e-23
-6.336336998e-22
1.876826783e-22
2.481541838e-24
-7.27918939e-23
-2.067951531e-24
3.350081481e-23
-1.588186776e-22
3.722312756e-24
4.135903063e-24
-2.051407919e-22
-1.075334796e-23
-6.203854594e-23
-6.6174449e-24
-2.481541838e-24
-1.530284133e-23
-1.654361225e-22
2.688336991e-23
-1.364848011e-23
-3.30872245e-23
-6.038418472e-23
-1.058791184e-22
-2.117582368e-22
6.6174449e-24
-3.30872245e-23
1.058791184e-22
5.29395592e-23
-3.044024654e-22
-1.058791184e-22
1.32348898e-22
0
0
-5.227781471e-22
2.316105715e-22
-1.058791184e-22
-7.27918939e-23
-2.514629062e-22
0
7.27918939e-23
4.135903063e-25
6.6174449e-23
5.790264288e-24
1.613002194e-23
7.940933881e-23
-6.6174449e-24
2.440182807e-23
-1.522012327e-22
-2.398823776e-23
-1.98523347e-23
-1.98523347e-23
2.067951531e-23
1.145645148e-22
-7.27918939e-23
4.342698216e-23
4.425416277e-23
6.6174449e-24
8.478601279e-23
7.858215819e-24
6.6174449e-24
1.571643164e-23
4.508134338e-23
-3.30872245e-22
3.887748879e-23
-3.722312756e-24
7.940933881e-23
1.013852536e-23
-1.036099346e-22
1.588186776e-22
-2.522900868e-23
1.129101536e-22
-2.117582368e-22
3.887748879e-23
-1.124965633e-22
-1.32348898e-22
8.809473524e-23
-6.6174449e-23
1.058791184e-22
6.6174449e-23
-1.852884572e-22
0
-3.507245797e-22
9.264422861e-23
-1.058791184e-22
-3.328812183e-22
-1.76662039e-22
-2.117582368e-22
7.940933881e-23
4.764560328e-22
0
1.720535674e-22
8.337980575e-22
0
0
-4.549493369e-24
2.580803511e-22
3.391440511e-23
-8.271806126e-24
-1.588186776e-22
-9.098986738e-24
7.858215819e-24
-1.32348898e-23
4.92061284e-23
-6.60632685e-24
2.64697796e-23
1.861156378e-23
8.271806126e-23
-7.27918939e-23
1.613002194e-23
3.680953726e-23
0
-5.624828165e-23
-6.57608587e-23
9.926167351e-23
2.067951531e-24
-2.812414083e-23
7.27918939e-23
3.184645358e-23
-4.5908524e-23
-1.32348898e-22
8.059453509e-24
-4.03194974e-23
2.051407919e-22
-1.116693827e-23
3.846389848e-23
1.852884572e-22
-1.141509245e-22
1.410342944e-22
1.455837878e-22
-5.045801737e-23
1.455837878e-22
-1.058791184e-22
-4.63221143e-23
1.32348898e-23
1.058791184e-22
-9.264422861e-23
8.602678371e-23
0
-2.832107384e-22
-3.586814169e-22
0
-6.6174449e-24
6.6174449e-23
-1.058791184e-22
2.713152409e-22
3.374896899e-22
-1.058791184e-22
-5.757177063e-22
-2.977850205e-23
2.316105715e-22
-1.695720256e-23
-1.654361225e-24
2.653674799e-22
-2.108199097e-23
2.768832555e-23
2.832107264e-22
2.812414083e-23
-2.067951531e-24
-1.759921876e-22
1.105742883e-22
6.216198646e-23
1.998627148e-22
-9.861349007e-23
-6.384965902e-23
1.978534808e-22
1.831896279e-23
3.226004389e-23
-6.683619349e-22
-4.5908524e-23
-1.32348898e-23
-5.565350555e-22
1.405095576e-23
-1.277771797e-22
1.204534125e-22
-2.524012059e-23
1.531395324e-23
-1.945847269e-22
4.817407184e-24
-1.597692987e-22
4.354119957e-22
-7.674879979e-23
4.93739983e-23
-1.256502362e-23
2.800315151e-23
-1.522012327e-22
0
-2.448454613e-22
-1.786710123e-22
0
-6.6174449e-23
6.6174449e-24
0
1.264011637e-22
-1.925756127e-22
-1.058791184e-22
-5.492479267e-22
7.676236084e-22
-1.058791184e-22
-2.316105715e-22
1.98523347e-23
-2.117582368e-22
-7.940933881e-23
-3.598235665e-23
-3.97046694e-23
-5.335314951e-23
-4.135903063e-23
-6.6174449e-24
-1.406207041e-23
-2.977850205e-23
-1.588186776e-22
5.162100824e-23
-1.812019343e-23
4.301339185e-22
-1.02570396e-22
9.719372197e-23
-5.558653716e-22
1.240770919e-22
2.150669593e-23
-2.183756817e-22
-7.196471329e-23
6.989676176e-23
-1.919059021e-22
7.89957485e-23
-7.816856789e-23
4.63221143e-22
-7.031035207e-24
4.673570461e-23
-1.786710123e-22
4.380723921e-23
-1.08327327e-22
-4.433688083e-22
-3.97046694e-23
8.065010972e-23
1.522012327e-22
2.895132144e-23
-1.37725572e-22
2.316105715e-22
1.406207041e-23
5.29395592e-23
0
1.257314531e-22
-2.117582368e-22
-1.058791184e-22
-1.389663429e-22
-1.98523347e-22
-1.058791184e-22
1.390459448e-23
2.309408668e-22
-1.058791184e-22
1.455837878e-22
0
0
-4.963083675e-22
5.426304818e-22
-1.058791184e-22
-6.6174449e-23
6.121136533e-23
9.926167351e-23
1.902515409e-23
9.967526381e-23
-5.95570041e-23
7.816856789e-23
1.943874439e-23
-2.316105715e-22
3.521073715e-24
-5.108395894e-23
2.514629062e-22
5.790264288e-24
-3.515517603e-23
-8.602678371e-23
-4.135903063e-25
-6.948317145e-23
-4.301339185e-22
-1.133237439e-22
-8.147729034e-23
-9.065899514e-22
-5.790264288e-24
-4.673570461e-23
5.95570041e-23
-1.902515409e-23
1.778438317e-23
0
-1.010838733e-22
1.387205911e-22
-2.779326858e-22
4.963083675e-24
-4.756288522e-23
3.838118042e-22
-8.106370003e-23
1.108422021e-22
6.6174449e-23
-3.30872245e-24
1.389663429e-22
-1.058791184e-22
7.27918939e-23
-2.911675756e-22
-1.058791184e-22
-7.940933881e-23
-2.514629062e-22
1.058791184e-22
-5.88871893e-23
-9.331404341e-23
-2.117582368e-22
1.852884572e-22
4.036641389e-22
-1.058791184e-22
-2.316105715e-22
-6.021874859e-22
0
-5.161607022e-22
1.654361225e-24
1.852884572e-22
-7.403266482e-23
4.259980155e-23
-1.32348898e-23
6.948317145e-23
-7.27918939e-23
4.235164736e-22
-1.334325057e-22
-3.283079738e-23
-1.151435413e-21
-1.158052858e-23
-8.850832554e-23
-4.499862532e-22
9.140345769e-23
4.053185002e-23
-8.404155024e-22
-2.688336991e-23
-3.30872245e-23
-1.058791184e-22
1.191140082e-22
-7.27918939e-23
-1.058791184e-22
0
1.522012327e-22
1.058791184e-22
2.731483243e-22
-1.833083384e-24
0
1.98523347e-23
-1.32348898e-23
0
4.764560328e-22
-2.580803511e-22
0
4.896909226e-22
0
1.899938129e-05
0
-1.058791184e-22
1.899845771e-05
0
-1.058791184e-22
1.899854472e-05
-1.058791184e-22
-1.058791184e-22
1.899854471e-05
1.058791184e-22
0
1.899845775e-05
-1.058791184e-22
0
1.899938143e-05
0
-1.35300395e-22
1.058791184e-22
-2.127914002e-23
1.455837878e-22
-1.058791184e-22
3.682390211e-22
-1.602455918e-22
-1.058791184e-22
2.427050689e-22
2.800723293e-22
-1.058791184e-22
2.866897534e-22
-4.433688083e-22
0
5.454833485e-22
-2.874037415e-22
0
-5.865669356e-23
-1.389663429e-22
0
-1.455837878e-22
-2.64697796e-22
0
-2.448454613e-22
1.98523347e-22
-1.058791184e-22
6.021874859e-22
-4.896909226e-22
0
3.044024654e-22
-4.102815838e-22
0
1.720535674e-22
-1.654361225e-22
0
-1.98523347e-23
-2.117582368e-22
1.899807542e-05
-2.117582368e-22
0
1.899715985e-05
-2.117582368e-22
-1.058791184e-22
1.899724664e-05
1.058791184e-22
-2.117582368e-22
1.899724665e-05
1.058791184e-22
0
1.899715989e-05
-1.058791184e-22
0
1.899807548e-05
-1.058791184e-22
8.450444248e-24
-1.058791184e-22
-1.300111789e-22
6.6174449e-24
-1.058791184e-22
-2.807860083e-22
1.389663429e-22
0
3.101093713e-22
-5.880419425e-22
0
1.484372703e-22
-1.32348898e-23
-2.117582368e-22
0
-6.6174449e-24
-1.058791184e-22
-5.29395592e-22
6.6174449e-24
-1.058791184e-22
-1.389663429e-22
1.32348898e-23
-1.058791184e-22
4.433688083e-22
-2.64697796e-23
0
-3.124466655e-22
5.639095717e-22
-1.058791184e-22
-2.845501307e-22
-1.32348898e-22
0
-2.382280164e-22
-1.389663429e-22
1.058791184e-22
-9.065899514e-22
-1.058791184e-22
1.899823663e-05
0
0
1.899732067e-05
0
-1.058791184e-22
1.899740726e-05
1.058791184e-22
-2.117582368e-22
1.89974073e-05
0
1.058791184e-22
1.899732071e-05
-1.058791184e-22
-1.058791184e-22
1.899823665e-05
1.058791184e-22
0
-1.058791184e-22
6.688779739e-23
1.044524298e-22
0
1.470105707e-22
2.580803511e-22
0
7.808584983e-22
-2.646977749e-22
-1.058791184e-22
-4.934548229e-22
3.063457178e-22
-1.058791184e-22
2.514629016e-22
-5.579293178e-23
-1.058791184e-22
-6.467079877e-22
-3.044024654e-22
-1.058791184e-22
-8.674013209e-23
-8.191364791e-22
0
-7.293457219e-22
4.367513634e-22
0
6.526426038e-23
-5.946598736e-22
-1.058791184e-22
-2.514629062e-22
6.928884621e-22
0
-2.949316433e-22
5.785710789e-22
0
-1.341505105e-22
-1.058791184e-22
1.899830385e-05
0
-1.058791184e-22
1.899738752e-05
-1.058791184e-22
1.058791184e-22
1.899747414e-05
0
-1.058791184e-22
1.899747415e-05
1.058791184e-22
-2.117582368e-22
1.899738754e-05
-1.058791184e-22
-1.058791184e-22
1.899830384e-05
0
-3.492023374e-23
-1.058791184e-22
-7.440072489e-22
-2.50430514e-23
0
1.3377571e-22
-1.616723151e-22
-2.117582368e-22
-2.419917959e-22
2.287569379e-22
0
-2.932341707e-23
2.580803511e-22
0
4.113139398e-22
-3.97046694e-23
-1.058791184e-22
-1.32348898e-23
0
-1.058791184e-22
-1.32348898e-23
-7.27918939e-23
0
2.249931266e-22
5.29395592e-23
0
-5.842787977e-22
-4.678949415e-22
1.058791184e-22
-2.514629062e-22
2.779326858e-22
1.058791184e-22
-3.176373552e-22
-6.6174449e-23
0
5.227781471e-22
0
1.899829299e-05
-1.058791184e-22
-1.058791184e-22
1.899737651e-05
0
-1.058791184e-22
1.89974632e-05
-1.058791184e-22
0
1.89974632e-05
-1.058791184e-22
0
1.89973765e-05
-1.058791184e-22
-2.117582368e-22
1.899829296e-05
0
4.944753583e-22
0
7.284347e-22
-6.565537567e-22
0
1.403927882e-22
-3.984735121e-22
0
2.514622054e-22
2.675514602e-22
0
2.675507314e-22
-8.461226844e-22
-1.058791184e-22
-8.754455512e-22
-5.190141207e-22
0
3.687726565e-22
-4.896909226e-22
-2.117582368e-22
-5.426304818e-22
2.580803511e-22
0
-1.98523347e-23
-2.382280164e-22
0
-5.57925225e-23
2.807856491e-22
0
5.161607022e-22
1.98523347e-23
-1.058791184e-22
-2.845501307e-22
-4.367513634e-22
0
-6.485096002e-22
-2.117582368e-22
1.899882958e-05
0
0
1.899791042e-05
0
0
1.899799704e-05
1.058791184e-22
0
1.899799701e-05
-1.058791184e-22
0
1.899791036e-05
-2.117582368e-22
0
1.899882945e-05
0
1.32348898e-23
0
5.865324985e-23
-5.823351512e-22
0
-7.071631864e-22
-7.940933881e-23
1.058791184e-22
1.106900203e-22
-6.334681674e-22
-1.058791184e-22
5.615793984e-22
1.98523347e-22
0
-5.29395592e-22
-1.02570396e-21
0
-1.568334441e-21
-9.456735497e-24
-1.106422694e-22
-8.528972126e-24
3.908233052e-23
-4.763339793e-24
1.157661181e-23
-4.368414675e-23
0
-4.340570634e-23
1.240770919e-24
1.389663429e-22
-3.723096563e-23
-2.938057882e-23
-1.32348898e-23
9.057627707e-23
6.787130439e-23
-1.32348898e-23
-5.583469135e-23
-2.845501307e-22
-1.058791184e-22
-9.997973215e-23
2.911675756e-22
0
1.455838135e-22
-4.102815838e-22
1.058791184e-22
5.983583309e-22
-1.618488169e-22
-1.058791184e-22
-3.074325579e-22
-2.949982072e-23
-1.058791184e-22
2.875799777e-22
-3.30872245e-23
-1.058791184e-22
-1.455837878e-22
3.3087164e-24
-5.724574065e-23
-1.448285427e-23
3.226706903e-23
3.537512873e-22
-4.258936521e-23
-2.522900868e-23
7.962015857e-25
-6.907315497e-23
-1.159482388e-23
-2.486304874e-22
-1.757946855e-23
-2.213243586e-23
6.84839446e-23
1.067380584e-22
2.504046051e-23
5.373643438e-23
-1.449884001e-23
1.137182602e-23
-2.771362133e-22
-1.32348898e-23
-1.696422769e-23
-2.977850205e-22
1.261274317e-23
-1.550459006e-23
2.440887393e-22
-6.002349223e-24
9.522914733e-24
3.388302673e-23
-1.158123351e-22
2.791206217e-23
-2.249931266e-22
-2.088806675e-23
3.060568266e-23
-1.32348898e-22
8.002781686e-23
-1.257314531e-22
1.058791184e-22
2.216159371e-23
-1.595753946e-22
-2.117582368e-22
-2.728287917e-22
-1.257314531e-22
0
-1.404799428e-22
-6.698755349e-22
0
2.580803511e-22
-2.941946773e-22
-1.058791184e-22
-1.32348898e-22
-1.32348898e-22
-1.058791184e-22
-9.788325478e-22
-1.11707702e-23
3.619511619e-23
9.533040066e-24
-1.447918692e-23
-2.860636871e-22
-9.120222428e-24
5.91434138e-23
-4.331612112e-22
7.364034859e-23
-8.356295917e-23
2.86142011e-22
-1.406914693e-23
9.919088781e-24
1.404799772e-22
2.358475054e-23
-2.522547102e-23
1.404810124e-22
-5.296255077e-23
4.979777382e-23
-1.669507919e-22
3.309733785e-23
1.38805481e-23
2.877338634e-22
3.805030818e-23
1.285167413e-23
2.943515462e-22
-4.880720626e-23
1.074979784e-23
-2.7944641e-22
2.151682081e-23
1.822834042e-23
-1.53714867e-22
6.164517392e-23
-2.057838177e-24
-1.603333471e-22
4.675675475e-23
1.124965633e-22
-1.058791184e-22
-1.552284846e-22
2.726569582e-23
-1.058791184e-22
-3.140473568e-22
1.537932516e-22
0
-1.513772203e-24
-3.889154769e-22
-1.058791184e-22
-2.79446435e-22
1.32348898e-22
-1.058791184e-22
2.287958669e-23
-2.64697796e-23
-1.058791184e-22
-1.2970192e-21
-2.107203494e-23
4.560453128e-22
-2.7081301e-23
1.452882315e-24
2.287979287e-23
1.104600713e-22
-3.473447226e-23
5.915746386e-22
5.295734754e-23
-6.590048901e-24
9.801656353e-24
-4.300627527e-23
1.567780985e-22
-8.398529277e-22
6.949987102e-23
2.153048828e-23
-2.204488319e-22
9.838834382e-23
-4.798416913e-23
-4.855446222e-22
-3.599299352e-23
4.053159379e-23
-7.141215207e-22
-2.49220357e-24
-9.968948867e-23
-1.484548333e-22
-8.314588388e-23
-9.516490934e-23
3.041534816e-22
-4.344831945e-23
1.096551226e-22
1.257314531e-22
5.005859957e-23
-3.319359324e-24
-2.030676417e-22
-8.020575337e-23
-1.691241671e-22
-1.058791184e-22
-2.798348106e-23
1.257314531e-22
0
1.513824769e-24
-1.98523347e-23
-1.058791184e-22
3.304668121e-22
-1.847264035e-22
-1.058791184e-22
-9.950822388e-22
5.624828165e-22
0
1.272451934e-22
3.967972032e-22
-1.058791184e-22
9.592996649e-22
-5.982656304e-23
-2.630256024e-22
-5.812894894e-23
1.056502504e-23
-2.564100474e-22
1.324858382e-23
-3.889172092e-23
0
-6.740205708e-23
-1.32384497e-23
-3.008127024e-22
5.707546227e-23
3.393112096e-23
1.124965633e-22
1.365820609e-22
-4.384766734e-23
-6.6174449e-24
-1.058695866e-22
1.199411888e-23
2.779326858e-22
4.011825971e-23
-3.495725206e-23
3.904292491e-22
3.019209236e-23
6.7445648e-23
-1.32348898e-22
3.265938457e-23
2.922548298e-24
-4.265442161e-22
-4.797647553e-23
5.957728437e-23
-1.552287951e-22
-5.542110104e-23
6.083829966e-23
2.580803511e-22
3.680953726e-23
1.540552066e-22
-2.117582368e-22
1.257314531e-22
2.64697796e-22
-2.117582368e-22
2.876560432e-22
-2.860639498e-22
1.058791184e-22
-3.61149089e-23
-1.227037687e-22
-1.058791184e-22
-1.470976069e-22
-2.580803511e-22
-2.117582368e-22
1.338625937e-22
1.058791184e-22
0
-1.389663429e-22
8.060840056e-23
3.155628224e-22
1.324190371e-23
7.666607579e-24
4.348312921e-22
1.224576058e-22
-2.396795699e-23
4.199257473e-22
-3.267019757e-23
3.847805864e-23
-2.136618579e-23
8.645803956e-23
2.235766739e-23
2.728285105e-22
-1.390053573e-22
-5.380222215e-24
2.809612937e-22
-3.225632042e-23
-4.699288786e-23
-4.63221143e-23
-3.350432177e-23
2.192028623e-23
2.514629062e-22
-5.366590626e-24
-1.158052858e-23
9.926167351e-23
-9.390963501e-23
-7.01343843e-24
4.950516027e-23
2.936491175e-23
-7.045095997e-24
-1.98523347e-23
7.051175634e-24
-2.853773113e-23
1.124965633e-22
2.977850205e-23
2.816408494e-22
1.058791184e-22
1.771567143e-22
2.514629062e-22
-1.058791184e-22
2.876574905e-22
-2.860645514e-22
0
-3.221806867e-22
-4.117960277e-22
-1.058791184e-22
-4.412946254e-22
5.598654847e-25
-1.058791184e-22
3.253658103e-22
-3.97046694e-23
0
0
-4.368412159e-23
8.401859946e-22
-1.478754467e-22
5.025642903e-23
2.64697796e-22
-4.013709204e-23
-6.575042924e-23
1.257314531e-22
-1.414290315e-22
1.362208551e-23
-1.118583166e-21
-1.749976935e-22
1.013504788e-22
-7.347718407e-22
2.275122511e-23
1.240770919e-23
-3.311017534e-22
1.658695638e-23
-2.977850205e-23
1.124965633e-22
-9.512577044e-24
-3.97046694e-23
-1.455837878e-22
6.245213625e-23
1.902515409e-23
-2.514629062e-22
6.869854249e-23
-4.255164391e-26
-6.6174449e-24
1.488925103e-23
3.722312756e-24
3.30872245e-23
1.861156378e-23
-2.274746685e-23
5.29395592e-23
-4.384057247e-23
1.32348898e-22
-1.058791184e-22
0
-2.051407919e-22
-1.058791184e-22
1.058791184e-22
1.389663429e-22
-1.058791184e-22
-3.81107705e-23
-2.795265847e-22
-2.117582368e-22
3.639594695e-22
5.95570041e-23
0
-3.044024654e-22
2.911675756e-22
0
-5.29395592e-22
-1.158052858e-23
1.389663429e-22
-3.226004389e-23
-3.226004389e-23
-7.27918939e-23
-1.488925103e-23