/*--------------------------------*- C++ -*----------------------------------*\
  =========                 |
  \\      /  F ield         | OpenFOAM: The Open Source CFD Toolbox
   \\    /   O peration     | Website:  https://openfoam.org
    \\  /    A nd           | Version:  7
     \\/     M anipulation  |
\*---------------------------------------------------------------------------*/
FoamFile
{
    version     2.0;
    format      ascii;
    class       volScalarField;
    location    "2";
    object      p;
}
// * * * * * * * * * * * * * * * * * * * * * * * * * * * * * * * * * * * * * //

dimensions      [1 -1 -2 0 0 0 0];

internalField   nonuniform List<scalar> 
10692
(
101501.3687
101501.3437
101501.3146
101501.2955
101501.2908
101501.2697
101501.2607
101501.2653
101501.2528
101501.2528
101501.2653
101501.2607
101501.2697
101501.2908
101501.2955
101501.3146
101501.3437
101501.3687
101501.2603
101501.2358
101501.2061
101501.187
101501.183
101501.1612
101501.1522
101501.1575
101501.1443
101501.1443
101501.1575
101501.1522
101501.1612
101501.183
101501.187
101501.2061
101501.2358
101501.2603
101501.1744
101501.1493
101501.1203
101501.1012
101501.0965
101501.0754
101501.0665
101501.071
101501.0585
101501.0585
101501.071
101501.0665
101501.0754
101501.0965
101501.1012
101501.1203
101501.1493
101501.1744
101501.094
101501.0688
101501.0398
101501.0208
101501.016
101500.995
101500.9861
101500.9906
101500.9781
101500.9781
101500.9906
101500.9861
101500.995
101501.016
101501.0208
101501.0399
101501.0688
101501.094
101501.0313
101501.007
101500.9772
101500.9582
101500.9542
101500.9324
101500.9234
101500.9287
101500.9155
101500.9155
101500.9287
101500.9234
101500.9324
101500.9542
101500.9582
101500.9772
101501.007
101501.0313
101500.9545
101500.9294
101500.9004
101500.8814
101500.8766
101500.8556
101500.8466
101500.8512
101500.8387
101500.8387
101500.8512
101500.8466
101500.8556
101500.8766
101500.8814
101500.9004
101500.9294
101500.9545
101500.8914
101500.8663
101500.8373
101500.8184
101500.8136
101500.7925
101500.7836
101500.7882
101500.7757
101500.7757
101500.7882
101500.7836
101500.7925
101500.8136
101500.8184
101500.8373
101500.8663
101500.8914
101500.843
101500.8187
101500.7889
101500.7699
101500.7659
101500.7441
101500.7352
101500.7405
101500.7273
101500.7273
101500.7405
101500.7352
101500.7441
101500.7659
101500.7699
101500.7889
101500.8187
101500.843
101500.7786
101500.7536
101500.7246
101500.7056
101500.7008
101500.6798
101500.6708
101500.6754
101500.6629
101500.6629
101500.6754
101500.6708
101500.6798
101500.7008
101500.7056
101500.7246
101500.7536
101500.7786
101500.7265
101500.7015
101500.6725
101500.6535
101500.6488
101500.6277
101500.6188
101500.6233
101500.6109
101500.6109
101500.6233
101500.6188
101500.6277
101500.6488
101500.6535
101500.6725
101500.7015
101500.7265
101500.6871
101500.6628
101500.6331
101500.6141
101500.6101
101500.5883
101500.5793
101500.5846
101500.5714
101500.5714
101500.5846
101500.5793
101500.5883
101500.6101
101500.614
101500.6331
101500.6628
101500.6871
101500.6303
101500.6053
101500.5763
101500.5573
101500.5525
101500.5315
101500.5225
101500.5271
101500.5146
101500.5146
101500.5271
101500.5225
101500.5315
101500.5525
101500.5573
101500.5763
101500.6052
101500.6303
101500.5851
101500.5601
101500.5311
101500.5121
101500.5074
101500.4863
101500.4774
101500.4819
101500.4695
101500.4695
101500.4819
101500.4774
101500.4863
101500.5074
101500.5121
101500.5311
101500.5601
101500.5851
101500.5507
101500.5264
101500.4966
101500.4776
101500.4736
101500.4518
101500.4429
101500.4482
101500.435
101500.435
101500.4482
101500.4429
101500.4518
101500.4736
101500.4776
101500.4966
101500.5263
101500.5507
101500.4981
101500.473
101500.444
101500.425
101500.4203
101500.3992
101500.3903
101500.3948
101500.3824
101500.3824
101500.3948
101500.3903
101500.3992
101500.4203
101500.425
101500.444
101500.473
101500.4981
101500.4556
101500.4306
101500.4015
101500.3825
101500.3778
101500.3567
101500.3478
101500.3524
101500.3399
101500.3399
101500.3524
101500.3478
101500.3567
101500.3778
101500.3825
101500.4015
101500.4306
101500.4556
101500.4288
101500.4044
101500.3747
101500.3556
101500.3516
101500.3298
101500.3209
101500.3262
101500.313
101500.313
101500.3262
101500.3209
101500.3298
101500.3516
101500.3556
101500.3746
101500.4044
101500.4287
101500.3714
101500.3463
101500.3173
101500.2983
101500.2935
101500.2724
101500.2635
101500.2681
101500.2556
101500.2556
101500.2681
101500.2635
101500.2724
101500.2935
101500.2983
101500.3173
101500.3463
101500.3713
101494.8227
101494.7998
101494.7808
101494.7637
101494.7538
101494.7394
101494.7315
101494.7302
101494.7239
101494.7239
101494.7302
101494.7315
101494.7394
101494.7538
101494.7637
101494.7808
101494.7998
101494.8228
101494.7079
101494.685
101494.6659
101494.6489
101494.639
101494.6246
101494.6166
101494.6154
101494.6091
101494.6091
101494.6154
101494.6166
101494.6246
101494.639
101494.6489
101494.6659
101494.685
101494.7079
101494.6385
101494.6154
101494.5966
101494.5796
101494.5696
101494.5553
101494.5474
101494.546
101494.5398
101494.5398
101494.546
101494.5474
101494.5553
101494.5696
101494.5796
101494.5966
101494.6154
101494.6385
101494.5581
101494.535
101494.5162
101494.4992
101494.4892
101494.4749
101494.467
101494.4656
101494.4594
101494.4594
101494.4656
101494.467
101494.4749
101494.4892
101494.4992
101494.5162
101494.535
101494.5581
101494.4918
101494.4689
101494.4499
101494.4328
101494.423
101494.4086
101494.4007
101494.3995
101494.3931
101494.3931
101494.3995
101494.4007
101494.4086
101494.423
101494.4328
101494.4499
101494.4689
101494.4918
101494.422
101494.3989
101494.3801
101494.3631
101494.3531
101494.3389
101494.331
101494.3295
101494.3234
101494.3234
101494.3295
101494.331
101494.3389
101494.3531
101494.3631
101494.3801
101494.3989
101494.422
101494.3609
101494.3378
101494.3191
101494.302
101494.292
101494.2778
101494.2699
101494.2685
101494.2623
101494.2623
101494.2685
101494.2699
101494.2778
101494.292
101494.302
101494.3191
101494.3378
101494.3609
101494.3069
101494.284
101494.265
101494.248
101494.2382
101494.2238
101494.2158
101494.2146
101494.2083
101494.2083
101494.2146
101494.2158
101494.2238
101494.2382
101494.248
101494.265
101494.284
101494.3069
101494.2492
101494.2262
101494.2074
101494.1904
101494.1804
101494.1662
101494.1583
101494.1569
101494.1507
101494.1507
101494.1569
101494.1583
101494.1662
101494.1804
101494.1904
101494.2074
101494.2262
101494.2492
101494.1979
101494.1749
101494.1561
101494.1391
101494.1291
101494.1149
101494.107
101494.1056
101494.0994
101494.0994
101494.1056
101494.107
101494.1149
101494.1291
101494.1391
101494.1561
101494.1749
101494.1979
101494.1527
101494.1298
101494.1108
101494.0938
101494.084
101494.0696
101494.0617
101494.0605
101494.0541
101494.0541
101494.0605
101494.0617
101494.0696
101494.084
101494.0938
101494.1108
101494.1298
101494.1527
101494.1021
101494.0791
101494.0603
101494.0433
101494.0333
101494.0191
101494.0112
101494.0098
101494.0036
101494.0036
101494.0098
101494.0112
101494.0191
101494.0333
101494.0433
101494.0603
101494.0791
101494.1021
101494.0568
101494.0338
101494.015
101493.998
101493.988
101493.9738
101493.9659
101493.9645
101493.9583
101493.9583
101493.9645
101493.9659
101493.9738
101493.988
101493.998
101494.015
101494.0338
101494.0568
101494.0158
101493.993
101493.974
101493.957
101493.9472
101493.9327
101493.9248
101493.9236
101493.9172
101493.9172
101493.9236
101493.9248
101493.9327
101493.9472
101493.957
101493.974
101493.993
101494.0158
101493.9695
101493.9465
101493.9278
101493.9107
101493.9007
101493.8865
101493.8786
101493.8772
101493.871
101493.871
101493.8772
101493.8786
101493.8865
101493.9007
101493.9107
101493.9277
101493.9465
101493.9695
101493.9236
101493.9006
101493.8818
101493.8648
101493.8548
101493.8406
101493.8326
101493.8312
101493.8251
101493.8251
101493.8312
101493.8326
101493.8406
101493.8548
101493.8648
101493.8818
101493.9006
101493.9236
101493.8915
101493.8687
101493.8497
101493.8326
101493.8229
101493.8084
101493.8005
101493.7993
101493.7929
101493.7929
101493.7993
101493.8005
101493.8084
101493.8228
101493.8326
101493.8497
101493.8687
101493.8915
101493.8243
101493.8012
101493.7824
101493.7654
101493.7554
101493.7411
101493.7332
101493.7318
101493.7256
101493.7256
101493.7318
101493.7332
101493.7411
101493.7554
101493.7654
101493.7824
101493.8012
101493.8243
101488.8407
101488.8165
101488.8014
101488.7848
101488.7747
101488.7623
101488.7549
101488.7522
101488.7475
101488.7475
101488.7522
101488.7549
101488.7623
101488.7747
101488.7848
101488.8014
101488.8165
101488.8408
101488.7166
101488.6921
101488.6772
101488.6606
101488.6504
101488.6381
101488.6307
101488.628
101488.6234
101488.6234
101488.628
101488.6307
101488.6381
101488.6504
101488.6606
101488.6772
101488.6922
101488.7166
101488.6563
101488.632
101488.6171
101488.6006
101488.5903
101488.5781
101488.5707
101488.5679
101488.5634
101488.5634
101488.5679
101488.5707
101488.5781
101488.5903
101488.6006
101488.6171
101488.632
101488.6564
101488.5731
101488.5487
101488.5339
101488.5173
101488.5071
101488.4949
101488.4875
101488.4847
101488.4802
101488.4802
101488.4847
101488.4875
101488.4949
101488.5071
101488.5173
101488.5339
101488.5487
101488.5731
101488.5081
101488.4837
101488.4688
101488.4523
101488.4421
101488.4299
101488.4225
101488.4197
101488.4152
101488.4152
101488.4197
101488.4225
101488.4299
101488.4421
101488.4523
101488.4688
101488.4837
101488.5081
101488.4402
101488.4158
101488.401
101488.3845
101488.3743
101488.3621
101488.3547
101488.3519
101488.3474
101488.3474
101488.3519
101488.3547
101488.3621
101488.3743
101488.3845
101488.401
101488.4158
101488.4402
101488.3803
101488.3559
101488.3411
101488.3246
101488.3144
101488.3022
101488.2948
101488.292
101488.2875
101488.2875
101488.292
101488.2948
101488.3022
101488.3144
101488.3246
101488.3411
101488.3559
101488.3803
101488.3256
101488.3013
101488.2864
101488.2699
101488.2597
101488.2475
101488.2401
101488.2374
101488.2328
101488.2328
101488.2374
101488.2401
101488.2475
101488.2598
101488.2699
101488.2864
101488.3013
101488.3256
101488.2702
101488.2459
101488.231
101488.2146
101488.2043
101488.1921
101488.1848
101488.182
101488.1774
101488.1774
101488.182
101488.1848
101488.1921
101488.2043
101488.2146
101488.231
101488.2459
101488.2702
101488.2194
101488.1951
101488.1803
101488.1638
101488.1536
101488.1414
101488.134
101488.1312
101488.1267
101488.1267
101488.1312
101488.134
101488.1414
101488.1536
101488.1638
101488.1803
101488.1951
101488.2194
101488.1731
101488.1488
101488.1339
101488.1174
101488.1073
101488.095
101488.0876
101488.0849
101488.0803
101488.0803
101488.0849
101488.0876
101488.095
101488.1073
101488.1174
101488.1339
101488.1488
101488.1731
101488.1242
101488.0999
101488.085
101488.0686
101488.0583
101488.0461
101488.0388
101488.036
101488.0314
101488.0314
101488.036
101488.0388
101488.0461
101488.0583
101488.0686
101488.085
101488.0999
101488.1242
101488.079
101488.0547
101488.0399
101488.0234
101488.0132
101488.001
101487.9936
101487.9908
101487.9863
101487.9863
101487.9908
101487.9936
101488.001
101488.0132
101488.0234
101488.0399
101488.0547
101488.079
101488.036
101488.0117
101487.9968
101487.9803
101487.9701
101487.9578
101487.9504
101487.9477
101487.9432
101487.9432
101487.9477
101487.9504
101487.9578
101487.9701
101487.9803
101487.9968
101488.0117
101488.036
101487.9914
101487.967
101487.9522
101487.9357
101487.9255
101487.9133
101487.9059
101487.9031
101487.8986
101487.8986
101487.9031
101487.9059
101487.9133
101487.9255
101487.9357
101487.9522
101487.967
101487.9914
101487.9417
101487.9173
101487.9025
101487.886
101487.8758
101487.8635
101487.8562
101487.8534
101487.8489
101487.8489
101487.8534
101487.8562
101487.8635
101487.8758
101487.886
101487.9025
101487.9173
101487.9417
101487.9102
101487.8859
101487.871
101487.8545
101487.8443
101487.832
101487.8246
101487.8219
101487.8173
101487.8173
101487.8219
101487.8246
101487.832
101487.8443
101487.8545
101487.871
101487.8859
101487.9102
101487.8363
101487.8119
101487.797
101487.7805
101487.7703
101487.7581
101487.7507
101487.7479
101487.7434
101487.7434
101487.7479
101487.7507
101487.7581
101487.7703
101487.7805
101487.797
101487.8119
101487.8363
101483.8635
101483.8384
101483.8242
101483.8073
101483.7984
101483.7859
101483.7787
101483.7766
101483.7717
101483.7717
101483.7766
101483.7787
101483.7859
101483.7984
101483.8073
101483.8242
101483.8385
101483.8635
101483.7322
101483.7072
101483.6928
101483.6759
101483.6671
101483.6545
101483.6474
101483.6454
101483.6404
101483.6404
101483.6454
101483.6474
101483.6545
101483.6671
101483.676
101483.6929
101483.7072
101483.7322
101483.6763
101483.6511
101483.6371
101483.6202
101483.6112
101483.5988
101483.5917
101483.5894
101483.5847
101483.5847
101483.5894
101483.5917
101483.5988
101483.6112
101483.6203
101483.6371
101483.6511
101483.6763
101483.5889
101483.5637
101483.5498
101483.5329
101483.5238
101483.5115
101483.5044
101483.5021
101483.4974
101483.4974
101483.5021
101483.5044
101483.5115
101483.5238
101483.5329
101483.5498
101483.5637
101483.5889
101483.5267
101483.5018
101483.4876
101483.4707
101483.4619
101483.4493
101483.4422
101483.4402
101483.4352
101483.4352
101483.4402
101483.4422
101483.4493
101483.4619
101483.4707
101483.4876
101483.5018
101483.5267
101483.4583
101483.4332
101483.4193
101483.4024
101483.3934
101483.3811
101483.374
101483.3717
101483.3669
101483.3669
101483.3717
101483.374
101483.3811
101483.3934
101483.4024
101483.4193
101483.4332
101483.4583
101483.3994
101483.3743
101483.3604
101483.3435
101483.3345
101483.3222
101483.3151
101483.3128
101483.3081
101483.3081
101483.3128
101483.3151
101483.3222
101483.3345
101483.3436
101483.3604
101483.3743
101483.3994
101483.3459
101483.3209
101483.3068
101483.2899
101483.2811
101483.2686
101483.2615
101483.2595
101483.2545
101483.2545
101483.2595
101483.2615
101483.2686
101483.2811
101483.2899
101483.3068
101483.321
101483.3459
101483.2908
101483.2657
101483.2518
101483.2349
101483.2259
101483.2136
101483.2065
101483.2042
101483.1995
101483.1995
101483.2042
101483.2065
101483.2136
101483.2259
101483.2349
101483.2518
101483.2657
101483.2908
101483.2405
101483.2154
101483.2014
101483.1846
101483.1756
101483.1633
101483.1562
101483.1539
101483.1492
101483.1492
101483.1539
101483.1562
101483.1633
101483.1756
101483.1846
101483.2014
101483.2154
101483.2405
101483.195
101483.1701
101483.1559
101483.1391
101483.1303
101483.1177
101483.1106
101483.1086
101483.1036
101483.1036
101483.1086
101483.1106
101483.1177
101483.1303
101483.1391
101483.1559
101483.1701
101483.195
101483.1459
101483.1208
101483.1069
101483.09
101483.081
101483.0687
101483.0616
101483.0593
101483.0546
101483.0546
101483.0593
101483.0616
101483.0687
101483.081
101483.09
101483.1069
101483.1208
101483.1459
101483.1011
101483.076
101483.0621
101483.0453
101483.0362
101483.0239
101483.0168
101483.0146
101483.0098
101483.0098
101483.0146
101483.0168
101483.0239
101483.0362
101483.0453
101483.0621
101483.076
101483.1011
101483.0577
101483.0328
101483.0186
101483.0017
101482.9929
101482.9804
101482.9733
101482.9713
101482.9663
101482.9663
101482.9713
101482.9733
101482.9804
101482.9929
101483.0017
101483.0186
101483.0328
101483.0577
101483.0134
101482.9883
101482.9744
101482.9575
101482.9485
101482.9362
101482.9291
101482.9268
101482.9221
101482.9221
101482.9268
101482.9291
101482.9362
101482.9485
101482.9575
101482.9744
101482.9883
101483.0134
101482.9602
101482.9351
101482.9211
101482.9043
101482.8953
101482.8829
101482.8758
101482.8736
101482.8688
101482.8688
101482.8736
101482.8758
101482.8829
101482.8953
101482.9043
101482.9211
101482.9351
101482.9602
101482.9313
101482.9064
101482.8922
101482.8753
101482.8665
101482.854
101482.8468
101482.8448
101482.8398
101482.8398
101482.8448
101482.8468
101482.854
101482.8665
101482.8753
101482.8922
101482.9064
101482.9313
101482.8515
101482.8263
101482.8123
101482.7954
101482.7864
101482.774
101482.7669
101482.7646
101482.7599
101482.7599
101482.7646
101482.7669
101482.774
101482.7864
101482.7954
101482.8123
101482.8262
101482.8515
101478.9375
101478.9104
101478.8979
101478.8805
101478.8712
101478.8597
101478.853
101478.8499
101478.8461
101478.8461
101478.8499
101478.853
101478.8597
101478.8712
101478.8805
101478.8979
101478.9104
101478.9375
101478.7979
101478.7705
101478.7582
101478.7407
101478.7314
101478.72
101478.7133
101478.7101
101478.7065
101478.7065
101478.7102
101478.7133
101478.72
101478.7314
101478.7408
101478.7582
101478.7705
101478.7979
101478.7465
101478.7192
101478.7071
101478.6897
101478.6803
101478.669
101478.6623
101478.659
101478.6554
101478.6554
101478.659
101478.6623
101478.669
101478.6803
101478.6897
101478.7071
101478.7192
101478.7465
101478.6547
101478.6274
101478.6152
101478.5978
101478.5884
101478.5771
101478.5705
101478.5672
101478.5636
101478.5636
101478.5672
101478.5705
101478.5771
101478.5884
101478.5978
101478.6152
101478.6274
101478.6547
101478.5939
101478.5667
101478.5544
101478.5371
101478.5277
101478.5164
101478.5097
101478.5066
101478.5029
101478.5029
101478.5066
101478.5097
101478.5164
101478.5278
101478.5371
101478.5544
101478.5667
101478.5939
101478.526
101478.4987
101478.4866
101478.4693
101478.4598
101478.4486
101478.4419
101478.4387
101478.4351
101478.4351
101478.4387
101478.4419
101478.4486
101478.4598
101478.4693
101478.4866
101478.4987
101478.526
101478.4684
101478.4412
101478.429
101478.4117
101478.4023
101478.391
101478.3844
101478.3811
101478.3776
101478.3776
101478.3811
101478.3844
101478.3911
101478.4023
101478.4117
101478.429
101478.4412
101478.4684
101478.4146
101478.3874
101478.3751
101478.3578
101478.3485
101478.3371
101478.3305
101478.3273
101478.3237
101478.3237
101478.3273
101478.3305
101478.3371
101478.3485
101478.3578
101478.3751
101478.3874
101478.4146
101478.3612
101478.334
101478.3219
101478.3046
101478.2952
101478.2839
101478.2773
101478.274
101478.2705
101478.2705
101478.274
101478.2773
101478.2839
101478.2952
101478.3046
101478.3219
101478.334
101478.3612
101478.3115
101478.2843
101478.2722
101478.2549
101478.2455
101478.2342
101478.2276
101478.2243
101478.2208
101478.2208
101478.2243
101478.2276
101478.2342
101478.2455
101478.2549
101478.2722
101478.2843
101478.3115
101478.2656
101478.2384
101478.2262
101478.2088
101478.1995
101478.1882
101478.1815
101478.1784
101478.1747
101478.1747
101478.1784
101478.1815
101478.1882
101478.1995
101478.2088
101478.2262
101478.2384
101478.2656
101478.2177
101478.1905
101478.1784
101478.161
101478.1516
101478.1404
101478.1337
101478.1305
101478.1269
101478.1269
101478.1305
101478.1337
101478.1404
101478.1516
101478.161
101478.1784
101478.1905
101478.2177
101478.1735
101478.1462
101478.1341
101478.1168
101478.1074
101478.0961
101478.0895
101478.0862
101478.0827
101478.0827
101478.0862
101478.0895
101478.0961
101478.1074
101478.1168
101478.1341
101478.1462
101478.1735
101478.1282
101478.101
101478.0888
101478.0714
101478.0621
101478.0508
101478.0441
101478.0409
101478.0373
101478.0373
101478.0409
101478.0441
101478.0508
101478.0621
101478.0714
101478.0888
101478.101
101478.1282
101478.0861
101478.0588
101478.0467
101478.0294
101478.02
101478.0087
101478.002
101477.9988
101477.9952
101477.9952
101477.9988
101478.002
101478.0087
101478.02
101478.0294
101478.0467
101478.0588
101478.0861
101478.0294
101478.0021
101477.99
101477.9726
101477.9632
101477.9519
101477.9453
101477.942
101477.9384
101477.9384
101477.942
101477.9453
101477.9519
101477.9632
101477.9726
101477.99
101478.0021
101478.0294
101478.001
101477.9737
101477.9615
101477.9441
101477.9348
101477.9234
101477.9168
101477.9136
101477.91
101477.91
101477.9136
101477.9168
101477.9235
101477.9348
101477.9441
101477.9615
101477.9737
101478.001
101477.9172
101477.8898
101477.8776
101477.8603
101477.8509
101477.8396
101477.8329
101477.8297
101477.8261
101477.8261
101477.8297
101477.8329
101477.8396
101477.8509
101477.8603
101477.8776
101477.8898
101477.9172
101473.811
101473.7814
101473.7703
101473.7522
101473.7424
101473.7318
101473.7254
101473.7215
101473.7188
101473.7188
101473.7215
101473.7254
101473.7318
101473.7424
101473.7522
101473.7703
101473.7813
101473.811
101473.6627
101473.6326
101473.6218
101473.6037
101473.5937
101473.5834
101473.577
101473.5729
101473.5704
101473.5704
101473.5729
101473.577
101473.5834
101473.5937
101473.6037
101473.6218
101473.6326
101473.6627
101473.6151
101473.5853
101473.5745
101473.5564
101473.5466
101473.5362
101473.5298
101473.5258
101473.5232
101473.5232
101473.5258
101473.5298
101473.5362
101473.5466
101473.5564
101473.5745
101473.5853
101473.6151
101473.5185
101473.4886
101473.4779
101473.4598
101473.4499
101473.4395
101473.4332
101473.4291
101473.4266
101473.4266
101473.4291
101473.4332
101473.4395
101473.4499
101473.4598
101473.4779
101473.4886
101473.5185
101473.4592
101473.4293
101473.4186
101473.4005
101473.3906
101473.3803
101473.374
101473.3698
101473.3674
101473.3674
101473.3698
101473.374
101473.3803
101473.3906
101473.4005
101473.4186
101473.4293
101473.4592
101473.3913
101473.3615
101473.3509
101473.3328
101473.3229
101473.3126
101473.3062
101473.3022
101473.2997
101473.2997
101473.3022
101473.3062
101473.3126
101473.3229
101473.3328
101473.3509
101473.3615
101473.3913
101473.3352
101473.3054
101473.2947
101473.2767
101473.2668
101473.2564
101473.2501
101473.2461
101473.2435
101473.2435
101473.2461
101473.2501
101473.2564
101473.2668
101473.2767
101473.2947
101473.3054
101473.3352
101473.281
101473.2511
101473.2405
101473.2224
101473.2125
101473.2022
101473.1959
101473.1918
101473.1893
101473.1893
101473.1918
101473.1959
101473.2022
101473.2125
101473.2224
101473.2405
101473.2511
101473.281
101473.2294
101473.1997
101473.189
101473.171
101473.1611
101473.1508
101473.1444
101473.1404
101473.1379
101473.1379
101473.1404
101473.1444
101473.1508
101473.1611
101473.171
101473.189
101473.1997
101473.2294
101473.1804
101473.1506
101473.1399
101473.1219
101473.112
101473.1017
101473.0954
101473.0913
101473.0888
101473.0888
101473.0913
101473.0954
101473.1017
101473.112
101473.1219
101473.1399
101473.1506
101473.1804
101473.1341
101473.1042
101473.0936
101473.0755
101473.0656
101473.0553
101473.049
101473.0449
101473.0424
101473.0424
101473.0449
101473.049
101473.0553
101473.0656
101473.0755
101473.0936
101473.1042
101473.1341
101473.0874
101473.0576
101473.047
101473.0289
101473.0191
101473.0087
101473.0024
101472.9984
101472.9958
101472.9958
101472.9984
101473.0024
101473.0087
101473.0191
101473.0289
101473.047
101473.0577
101473.0874
101473.0439
101473.0141
101473.0035
101472.9854
101472.9756
101472.9652
101472.9589
101472.9549
101472.9523
101472.9523
101472.9549
101472.9589
101472.9652
101472.9756
101472.9854
101473.0035
101473.0142
101473.0439
101472.9967
101472.9668
101472.9562
101472.9381
101472.9282
101472.9179
101472.9116
101472.9074
101472.905
101472.905
101472.9074
101472.9116
101472.9179
101472.9282
101472.9381
101472.9562
101472.9668
101472.9967
101472.9568
101472.927
101472.9163
101472.8983
101472.8884
101472.878
101472.8717
101472.8677
101472.8651
101472.8651
101472.8677
101472.8717
101472.878
101472.8885
101472.8983
101472.9163
101472.927
101472.9568
101472.8967
101472.8669
101472.8562
101472.8381
101472.8283
101472.8179
101472.8116
101472.8075
101472.805
101472.805
101472.8075
101472.8116
101472.8179
101472.8283
101472.8381
101472.8562
101472.8669
101472.8967
101472.8686
101472.8387
101472.828
101472.81
101472.8001
101472.7897
101472.7834
101472.7793
101472.7768
101472.7768
101472.7793
101472.7834
101472.7897
101472.8001
101472.81
101472.828
101472.8387
101472.8686
101472.7813
101472.7514
101472.7407
101472.7226
101472.7128
101472.7023
101472.696
101472.692
101472.6894
101472.6894
101472.692
101472.696
101472.7023
101472.7128
101472.7226
101472.7407
101472.7514
101472.7813
101468.5935
101468.5625
101468.5512
101468.5321
101468.5232
101468.5119
101468.5057
101468.5024
101468.4993
101468.4993
101468.5024
101468.5057
101468.5119
101468.5232
101468.5321
101468.5512
101468.5624
101468.5935
101468.4378
101468.4065
101468.3953
101468.3763
101468.3673
101468.3561
101468.3499
101468.3466
101468.3435
101468.3435
101468.3466
101468.3499
101468.3561
101468.3673
101468.3762
101468.3953
101468.4065
101468.4378
101468.392
101468.3607
101468.3498
101468.3308
101468.3217
101468.3106
101468.3045
101468.301
101468.2981
101468.2981
101468.301
101468.3045
101468.3106
101468.3217
101468.3307
101468.3498
101468.3607
101468.392
101468.2902
101468.2589
101468.248
101468.229
101468.2199
101468.2089
101468.2028
101468.1992
101468.1963
101468.1963
101468.1992
101468.2028
101468.2089
101468.2198
101468.229
101468.248
101468.2589
101468.2902
101468.234
101468.2028
101468.1917
101468.1727
101468.1638
101468.1527
101468.1465
101468.1432
101468.1401
101468.1401
101468.1432
101468.1465
101468.1526
101468.1638
101468.1727
101468.1917
101468.2028
101468.2339
101468.1643
101468.1331
101468.1222
101468.1032
101468.0942
101468.0832
101468.0771
101468.0735
101468.0707
101468.0707
101468.0735
101468.0771
101468.0832
101468.0942
101468.1032
101468.1222
101468.1331
101468.1643
101468.1096
101468.0785
101468.0676
101468.0486
101468.0396
101468.0286
101468.0225
101468.019
101468.0161
101468.0161
101468.019
101468.0225
101468.0286
101468.0396
101468.0486
101468.0676
101468.0785
101468.1096
101468.0563
101468.0252
101468.0141
101467.9952
101467.9863
101467.9751
101467.969
101467.9657
101467.9626
101467.9626
101467.9657
101467.969
101467.9751
101467.9863
101467.9951
101468.0141
101468.0252
101468.0563
101468.0051
101467.974
101467.9631
101467.9442
101467.9351
101467.9241
101467.918
101467.9145
101467.9116
101467.9116
101467.9145
101467.918
101467.9241
101467.9351
101467.9442
101467.9631
101467.974
101468.0051
101467.9566
101467.9254
101467.9146
101467.8956
101467.8866
101467.8756
101467.8695
101467.866
101467.8631
101467.8631
101467.866
101467.8695
101467.8756
101467.8866
101467.8956
101467.9146
101467.9254
101467.9566
101467.9115
101467.8805
101467.8694
101467.8504
101467.8416
101467.8304
101467.8243
101467.8209
101467.8179
101467.8179
101467.821
101467.8243
101467.8304
101467.8416
101467.8504
101467.8694
101467.8805
101467.9115
101467.8645
101467.8334
101467.8225
101467.8035
101467.7945
101467.7835
101467.7774
101467.7739
101467.771
101467.771
101467.7739
101467.7774
101467.7835
101467.7945
101467.8036
101467.8225
101467.8334
101467.8645
101467.822
101467.7908
101467.78
101467.761
101467.752
101467.741
101467.7348
101467.7313
101467.7284
101467.7284
101467.7313
101467.7349
101467.741
101467.752
101467.761
101467.78
101467.7908
101467.822
101467.7742
101467.7431
101467.7321
101467.7131
101467.7042
101467.693
101467.6869
101467.6836
101467.6805
101467.6805
101467.6836
101467.6869
101467.6931
101467.7042
101467.7131
101467.7321
101467.7431
101467.7742
101467.7351
101467.7039
101467.693
101467.674
101467.665
101467.654
101467.6479
101467.6444
101467.6415
101467.6415
101467.6444
101467.6479
101467.654
101467.665
101467.674
101467.693
101467.7039
101467.7351
101467.6719
101467.6407
101467.6298
101467.6108
101467.6017
101467.5907
101467.5846
101467.5811
101467.5782
101467.5782
101467.5811
101467.5846
101467.5907
101467.6017
101467.6108
101467.6298
101467.6407
101467.6719
101467.6455
101467.6144
101467.6033
101467.5843
101467.5754
101467.5643
101467.5582
101467.5548
101467.5517
101467.5517
101467.5548
101467.5582
101467.5643
101467.5754
101467.5843
101467.6033
101467.6144
101467.6455
101467.5533
101467.522
101467.511
101467.492
101467.483
101467.4719
101467.4658
101467.4623
101467.4594
101467.4594
101467.4623
101467.4658
101467.4719
101467.483
101467.492
101467.511
101467.522
101467.5533
101463.3185
101463.2848
101463.274
101463.2539
101463.2448
101463.2336
101463.2276
101463.2239
101463.2212
101463.2212
101463.2238
101463.2276
101463.2336
101463.2447
101463.2538
101463.274
101463.2847
101463.3184
101463.1542
101463.1201
101463.1096
101463.0894
101463.0802
101463.0692
101463.0632
101463.0593
101463.0568
101463.0568
101463.0593
101463.0632
101463.0692
101463.0801
101463.0894
101463.1095
101463.1201
101463.1541
101463.1108
101463.0769
101463.0666
101463.0465
101463.0372
101463.0263
101463.0204
101463.0164
101463.014
101463.014
101463.0164
101463.0203
101463.0263
101463.0372
101463.0464
101463.0666
101463.0769
101463.1108
101463.0036
101462.9696
101462.9594
101462.9392
101462.9299
101462.9191
101462.9132
101462.9091
101462.9068
101462.9068
101462.9091
101462.9131
101462.9191
101462.9299
101462.9392
101462.9593
101462.9696
101463.0036
101462.9495
101462.9156
101462.9052
101462.8851
101462.8759
101462.865
101462.8591
101462.8552
101462.8527
101462.8527
101462.8552
101462.859
101462.8649
101462.8759
101462.885
101462.9052
101462.9155
101462.9495
101462.8786
101462.8447
101462.8344
101462.8143
101462.8051
101462.7942
101462.7883
101462.7844
101462.782
101462.782
101462.7844
101462.7883
101462.7942
101462.8051
101462.8143
101462.8344
101462.8447
101462.8785
101462.8256
101462.7918
101462.7815
101462.7614
101462.7522
101462.7413
101462.7354
101462.7315
101462.7291
101462.7291
101462.7315
101462.7354
101462.7413
101462.7522
101462.7614
101462.7815
101462.7917
101462.8256
101462.772
101462.7381
101462.7277
101462.7077
101462.6985
101462.6876
101462.6817
101462.6778
101462.6753
101462.6753
101462.6778
101462.6817
101462.6876
101462.6985
101462.7077
101462.7277
101462.7381
101462.7719
101462.7222
101462.6884
101462.6781
101462.658
101462.6488
101462.638
101462.6321
101462.6281
101462.6257
101462.6257
101462.6281
101462.6321
101462.638
101462.6488
101462.658
101462.6781
101462.6883
101462.7221
101462.674
101462.6402
101462.63
101462.6099
101462.6007
101462.5899
101462.584
101462.58
101462.5776
101462.5776
101462.58
101462.584
101462.5899
101462.6007
101462.6099
101462.63
101462.6402
101462.674
101462.6293
101462.5955
101462.5852
101462.5651
101462.5559
101462.545
101462.5391
101462.5352
101462.5328
101462.5328
101462.5352
101462.5391
101462.545
101462.5559
101462.5651
101462.5852
101462.5955
101462.6293