/*--------------------------------*- C++ -*----------------------------------*\
  =========                 |
  \\      /  F ield         | OpenFOAM: The Open Source CFD Toolbox
   \\    /   O peration     | Website:  https://openfoam.org
    \\  /    A nd           | Version:  7
     \\/     M anipulation  |
\*---------------------------------------------------------------------------*/
FoamFile
{
    version     2.0;
    format      ascii;
    class       volScalarField;
    location    "2";
    object      pDyn;
}
// * * * * * * * * * * * * * * * * * * * * * * * * * * * * * * * * * * * * * //

dimensions      [1 -1 -2 0 0 0 0];

internalField   nonuniform List<scalar> 
10692
(
2.488181193
2.502993163
2.499044553
2.498774173
2.501721538
2.499061734
2.498951311
2.501857218
2.499081467
2.49908149
2.501857265
2.498951391
2.499061745
2.501721469
2.498774017
2.499044327
2.502992896
2.488180921
2.506458328
2.521659715
2.517432993
2.517153353
2.520396711
2.517453952
2.51734511
2.520530354
2.517471361
2.51747138
2.520530395
2.517345179
2.517453956
2.52039664
2.517153199
2.517432771
2.521659451
2.506458059
2.50036541
2.515282979
2.511301738
2.511030101
2.513995383
2.511317154
2.51120409
2.514133179
2.511337233
2.511337246
2.514133201
2.511204138
2.511317145
2.513995309
2.511029952
2.511301528
2.51528273
2.500365159
2.501296316
2.516202652
2.512240588
2.511971044
2.514916001
2.512257166
2.512143546
2.515054203
2.512277175
2.512277178
2.515054201
2.512143565
2.512257142
2.514915925
2.511970908
2.512240399
2.516202431
2.501296093
2.504057953
2.519273786
2.51500966
2.514729047
2.518008052
2.515030854
2.514921906
2.51814365
2.515049126
2.515049123
2.518143634
2.514921907
2.515030826
2.518007989
2.514728937
2.515009506
2.519273604
2.504057771
2.501662577
2.516595818
2.512605758
2.512334602
2.515310967
2.512622882
2.512509554
2.515449483
2.512643002
2.512642993
2.515449455
2.512509538
2.512622851
2.515310919
2.512334522
2.512605652
2.516595691
2.501662452
2.501472905
2.516398774
2.512414634
2.512144042
2.51511367
2.51243203
2.51231875
2.515252717
2.512452531
2.512452522
2.515252693
2.512318733
2.51243201
2.515113647
2.512144004
2.512414582
2.516398708
2.501472846
2.504525263
2.519737801
2.515479827
2.515199763
2.51847281
2.515501897
2.515393302
2.518609095
2.515520604
2.515520611
2.518609083
2.515393303
2.515501903
2.518472819
2.515199772
2.515479832
2.519737804
2.504525272
2.501783139
2.516716111
2.512726803
2.512455692
2.515431907
2.512744347
2.512631334
2.51557082
2.512764825
2.512764835
2.515570851
2.512631371
2.512744398
2.515431963
2.51245575
2.512726864
2.516716168
2.501783203
2.501713129
2.516644578
2.512656112
2.512385034
2.515360317
2.512673575
2.512560573
2.515499281
2.512694135
2.512694169
2.515499347
2.512560656
2.512673667
2.515360411
2.512385129
2.51265621
2.516644669
2.501713222
2.504553824
2.519766539
2.515508687
2.515228724
2.518501747
2.515530706
2.515422166
2.518638047
2.515549533
2.515549574
2.51863814
2.515422271
2.515530818
2.518501855
2.515228828
2.515508794
2.519766638
2.504553924
2.501729767
2.516661849
2.512673273
2.51240216
2.515377644
2.512690649
2.512577666
2.515516433
2.512711126
2.512711168
2.51551653
2.512577769
2.512690758
2.515377744
2.512402254
2.512673366
2.516661932
2.501729852
2.501736849
2.516669786
2.51268056
2.512409323
2.515385499
2.512697817
2.512584858
2.515524115
2.512718187
2.512718225
2.515524201
2.512584946
2.512697911
2.515385584
2.512409399
2.512680632
2.516669846
2.501736913
2.504599567
2.519811256
2.515555706
2.515275625
2.518546816
2.515577818
2.515469472
2.51868271
2.515596376
2.515596412
2.518682786
2.515469543
2.515577899
2.518546889
2.515275686
2.51555576
2.519811297
2.504599613
2.501528276
2.516456465
2.51247
2.512199126
2.515171339
2.512487058
2.512373944
2.515310094
2.512507562
2.512507597
2.515310173
2.512374005
2.512487138
2.515171407
2.512199182
2.512470047
2.516456493
2.501528312
2.502713491
2.517649399
2.513663862
2.513393132
2.516366266
2.51368188
2.513568852
2.51650484
2.513702199
2.513702234
2.516504929
2.513568914
2.513681966
2.516366344
2.513393198
2.513663916
2.517649439
2.502713531
2.504974461
2.520182875
2.515934313
2.515654534
2.518917437
2.515956727
2.515848783
2.519053202
2.515975281
2.515975331
2.519053293
2.515848854
2.51595682
2.518917522
2.515654603
2.515934376
2.520182913
2.504974519
2.493370115
2.508231298
2.504258535
2.503989872
2.506956431
2.50427748
2.504165201
2.50709514
2.5042983
2.50429834
2.507095241
2.504165264
2.504277575
2.506956513
2.50398994
2.504258587
2.508231344
2.493370164
3.649807646
3.67127598
3.676051265
3.675240014
3.666816119
3.675069061
3.674584799
3.666576754
3.674733861
3.67473382
3.666576571
3.674584583
3.675068559
3.666815376
3.675239092
3.676050279
3.671275018
3.64980678
3.68206259
3.702288616
3.708597895
3.70776989
3.697838181
3.707620192
3.707140139
3.697587303
3.707278219
3.707278173
3.697587109
3.707139919
3.707619693
3.69783745
3.707768986
3.708596926
3.702287671
3.682061738
3.680060468
3.701796128
3.70651481
3.705699499
3.697279542
3.705520092
3.705025842
3.69704388
3.705182984
3.705182934
3.697043682
3.705025592
3.705519598
3.69727884
3.705698641
3.706513895
3.701795238
3.680059673
3.683262931
3.704990933
3.709740348
3.708929382
3.700478125
3.70874749
3.708250716
3.700242508
3.708408887
3.708408825
3.700242289
3.708250445
3.708747013
3.700477476
3.708928605
3.709739525
3.704990136
3.683262222
3.673801449
3.694036145
3.700260352
3.699428119
3.689565229
3.699277383
3.698795279
3.689317914
3.698935989
3.698935925
3.689317688
3.698795025
3.69927696
3.689564673
3.699427456
3.700259652
3.694035466
3.673800853
3.682636708
3.704409037
3.709102045
3.708286421
3.699895372
3.708107435
3.70761115
3.699659193
3.707768665
3.707768603
3.699658982
3.707610898
3.70810707
3.699894915
3.708285891
3.709101497
3.704408508
3.682636249
3.681707584
3.703462459
3.708167185
3.707352186
3.698947364
3.707172384
3.706676349
3.698711951
3.706834194
3.706834136
3.698711774
3.706676133
3.707172097
3.698947023
3.707351801
3.708166797
3.703462085
3.681707282
3.673699091
3.693923616
3.700156941
3.699324192
3.68945235
3.699173079
3.698691223
3.689205206
3.698831922
3.698831904
3.689205072
3.698691084
3.699172895
3.689452138
3.699323961
3.700156717
3.693923411
3.673698933
3.681708403
3.703476664
3.708168622
3.707351799
3.698962803
3.707172985
3.706677314
3.698726653
3.706834663
3.706834652
3.698726629
3.706677263
3.707172921
3.698962716
3.707351692
3.708168519
3.703476557
3.681708325
3.681335235
3.703100329
3.707793002
3.706975953
3.698586313
3.706796991
3.706301382
3.698350284
3.706458796
3.706458844
3.69835034
3.706301435
3.706797023
3.698586317
3.706975929
3.707792969
3.703100274
3.681335195
3.673080631
3.693300512
3.69953754
3.698704857
3.688829824
3.698553271
3.698071895
3.688582206
3.698212332
3.698212394
3.688582326
3.698072006
3.698553354
3.688829867
3.698704865
3.699537535
3.693300476
3.673080597
3.681155038
3.702920842
3.707613766
3.706796729
3.698407374
3.706617763
3.706122315
3.698170953
3.706279499
3.706279564
3.698171082
3.706122423
3.706617845
3.698407409
3.706796723
3.70761374
3.702920777
3.681154973
3.681111829
3.702879471
3.707570971
3.706753755
3.698365856
3.70657479
3.706079455
3.698129083
3.706236421
3.706236477
3.698129189
3.706079528
3.706574843
3.698365866
3.706753721
3.707570911
3.702879366
3.681111728
3.673329401
3.693556
3.699789078
3.698955882
3.689086987
3.698805339
3.698324016
3.688839154
3.698464183
3.698464232
3.68883924
3.698324051
3.698805366
3.689086977
3.698955828
3.699788993
3.693555866
3.673329275
3.680852718
3.702602583
3.707311049
3.706495358
3.698087778
3.706315468
3.705820748
3.697851034
3.70597735
3.705977398
3.697851117
3.705820754
3.706315487
3.698087761
3.706495302
3.707310962
3.702602446
3.680852587
3.685026059
3.706806319
3.711511939
3.710697076
3.702299613
3.710520008
3.710025021
3.70206353
3.710181959
3.710182003
3.702063635
3.710025023
3.710520042
3.702299622
3.710697054
3.711511892
3.706806222
3.685025974
3.67476257
3.694984439
3.701234555
3.700402489
3.690514196
3.700252488
3.699773138
3.690265291
3.699911524
3.699911593
3.6902654
3.69977314
3.700252528
3.690514213
3.700402476
3.701234521
3.694984365
3.674762511
3.663516175
3.68511407
3.689825454
3.689017572
3.680634018
3.688842153
3.688350776
3.680400872
3.688507098
3.688507143
3.680400994
3.688350762
3.688842191
3.680634025
3.689017547
3.689825411
3.685113991
3.663516107
4.139481244
4.172240274
4.189650526
4.189375549
4.166706194
4.188797308
4.188268935
4.166510817
4.188416293
4.188416242
4.166510544
4.18826847
4.188796404
4.166704942
4.189374125
4.189649166
4.172239119
4.139480352
4.190150579
4.220320434
4.240912441
4.24063628
4.214782133
4.240067423
4.239551299
4.214560758
4.239680039
4.239679979
4.214560462
4.239550827
4.24006652
4.214780898
4.240634879
4.240911104
4.220319296
4.190149701
4.196976217
4.23027185
4.247647149
4.247365431
4.224635936
4.246770075
4.246225781
4.224440055
4.246380867
4.246380797
4.224439744
4.246225267
4.246769183
4.224634753
4.247364105
4.247645893
4.230270788
4.196975411
4.204630202
4.237970185
4.255350319
4.255073125
4.232344693
4.254476532
4.253927485
4.232148344
4.254083692
4.2540836
4.232147996
4.253926947
4.254475681
4.232343603
4.255071932
4.255349204
4.237969253
4.204629507
4.179926117
4.210074386
4.230552316
4.230269661
4.204492326
4.229695632
4.229175314
4.204272874
4.229305883
4.229305781
4.2042725
4.2291748
4.229694862
4.204491378
4.230268641
4.230551374
4.210073609
4.179925563
4.203187348
4.236549367
4.253880641
4.253597524
4.230916103
4.253002359
4.25245435
4.230718469
4.252609551
4.252609448
4.23071811
4.252453854
4.253001689
4.230915322
4.253596709
4.253879913
4.236548784
4.203186962
4.201915238
4.235262807
4.252596725
4.252313174
4.229626603
4.251717314
4.251169746
4.229430047
4.251325228
4.251325129
4.229429724
4.25116931
4.251716766
4.229626
4.252312569
4.252596218
4.235262424
4.201915043
4.179887965
4.210024774
4.230507018
4.230221768
4.204441779
4.229647548
4.229126957
4.204222482
4.229257915
4.229257852
4.204222226
4.229126651
4.229647171
4.204441378
4.230221389
4.230506725
4.210024593
4.179887879
4.201385076
4.234740076
4.252063819
4.251777659
4.229104858
4.25118257
4.250635538
4.228907207
4.25079061
4.250790579
4.228907085
4.250635358
4.251182328
4.229104578
4.251777372
4.252063603
4.234739905
4.201384998
4.200889415
4.234245356
4.25156404
4.251277049
4.228609974
4.250682009
4.250134974
4.22841246
4.250290111
4.250290143
4.22841246
4.250134938
4.250681881
4.22860977
4.251276809
4.251563825
4.234245184
4.20088929
4.178632836
4.208755904
4.229247616
4.228962098
4.203173622
4.228387199
4.227867813
4.20295349
4.227998177
4.227998243
4.202953587
4.227867889
4.228387158
4.203173481
4.228961897
4.229247423
4.208755716
4.178632676
4.200425743
4.233780359
4.251100641
4.250813725
4.228145926
4.250218615
4.249671879
4.227947987
4.249826848
4.249826921
4.2279481
4.249671961
4.250218584
4.228145786
4.250813506
4.251100404
4.233780098
4.200425496
4.200084891
4.233437609
4.25075965
4.250472782
4.227802773
4.249877387
4.24933108
4.227604267
4.249485661
4.249485716
4.227604342
4.249331113
4.249877322
4.227802603
4.250472522
4.250759348
4.233437254
4.200084542
4.179035997
4.209179341
4.229656052
4.229370056
4.203601273
4.228797115
4.22827715
4.203381821
4.228408237
4.228408276
4.203381856
4.22827713
4.228797015
4.20360108
4.22936977
4.229655708
4.209178921
4.179035583
4.199712534
4.233041562
4.25038851
4.250103804
4.22740521
4.249507471
4.248962527
4.227206547
4.249115952
4.249115982
4.22720656
4.24896246
4.249507351
4.227405008
4.250103518
4.250388164
4.233041136
4.199712104
4.207139754
4.240526067
4.257873237
4.257591423
4.234907724
4.257001134
4.256455823
4.23471199
4.256610814
4.256610835
4.234712019
4.256455749
4.257001039
4.234907567
4.257591196
4.257872964
4.240525709
4.207139403
4.180765509
4.210903214
4.23140234
4.231118173
4.205322884
4.230545743
4.230029756
4.20510188
4.230158363
4.230158397
4.20510191
4.230029669
4.230545648
4.205322734
4.231117965
4.231402087
4.210902897
4.180765177
4.165390346
4.19840072
4.215701529
4.215430072
4.192827656
4.214846651
4.214307553
4.192637695
4.214461566
4.214461583
4.192637725
4.21430745
4.21484655
4.192827496
4.215429852
4.21570128
4.198400397
4.165390008
4.032549553
4.0766885
4.108384997
4.109180758
4.071663994
4.108564968
4.108049229
4.071681601
4.108161852
4.108161905
4.071681589
4.108048918
4.108564297
4.071663084
4.109179855
4.108384379
4.076688267
4.032549684
4.10084527
4.141079981
4.177715044
4.178533681
4.136032925
4.177911107
4.177412084
4.136025343
4.177507689
4.177507728
4.136025304
4.177411732
4.177910411
4.136032006
4.178532774
4.177714423
4.141079738
4.100845388
4.119340238
4.164419258
4.196152729
4.196942145
4.159253347
4.196300768
4.195769094
4.159256193
4.19588038
4.195880391
4.159256079
4.195768699
4.196300062
4.159252454
4.196941287
4.196152155
4.164419051
4.119340384
4.132279782
4.177480138
4.209184699
4.209979243
4.172333941
4.209339284
4.208802187
4.172335373
4.208913809
4.20891378
4.172335171
4.208801727
4.209338578
4.172333105
4.209978474
4.20918421
4.177479993
4.132279969
4.091591078
4.131769037
4.16827385
4.16908539
4.126656793
4.168453616
4.167951227
4.126644672
4.168043158
4.168043098
4.126644405
4.167950717
4.168452931
4.126656039
4.169084726
4.168273455
4.131768957
4.091591313
4.130432367
4.175626427
4.207295232
4.208082809
4.170465505
4.207443134
4.206907075
4.17046623
4.207017955
4.207017873
4.170465907
4.206906559
4.207442506
4.170464869
4.208082287
4.20729497
4.175626447
4.13043267
4.128766477
4.173956431
4.205609536
4.206395614
4.168790522
4.205755208
4.205219706
4.168792715
4.205331111
4.205331009
4.168792378
4.205219215
4.20575466
4.168790015
4.206395238
4.205609414
4.173956555
4.128766841
4.091911254
4.132073854
4.168582304
4.169389746
4.126961393
4.168758818
4.168255984
4.126949999
4.168348534
4.168348468
4.12694972
4.168255615
4.168758426
4.126961051
4.16938953
4.168582293
4.132074022
4.091911552
4.127699199
4.172881909
4.204535048
4.205318049
4.167716688
4.204678374
4.204143568
4.167718263
4.204254896
4.204254848
4.167718096
4.204143306
4.20467804
4.167716344
4.205317759
4.204534921
4.172881903
4.127699325
4.127119556
4.172310988
4.20394923
4.204730815
4.167145572
4.204091336
4.203556541
4.167147025
4.20366778
4.203667815
4.167146984
4.20355642
4.204091064
4.167145204
4.204730439
4.203948961
4.172310835
4.12711951
4.090004397
4.130147117
4.166664728
4.167471408
4.125034848
4.16683962
4.166337861
4.125023681
4.166430922
4.166430998
4.125023774
4.166337886
4.166839455
4.125034536
4.167471035
4.166664421
4.130146874
4.090004234
4.126337814
4.171524641
4.203165851
4.203947578
4.166360463
4.203308013
4.202773395
4.166362031
4.202884984
4.202885066
4.166362141
4.202773441
4.20330787
4.166360153
4.203947167
4.203165454
4.171524255
4.126337484
4.125519493
4.170696987
4.202344742
4.203126608
4.165531239
4.20248618
4.201952141
4.165532286
4.202063353
4.202063411
4.165532344
4.201952134
4.202486004
4.165530899
4.203126138
4.202344235
4.170696434
4.125518977
4.090497948
4.130666552
4.167169486
4.167976687
4.125562788
4.167348217
4.166845912
4.125553301
4.16694005
4.16694008
4.125553295
4.166845839
4.167348
4.125562422
4.16797618
4.167168909
4.130665888
4.090497314
4.12471905
4.169875666
4.2015449
4.202329052
4.164707355
4.201687081
4.20115432
4.164707864
4.201264318
4.201264331
4.164707812
4.20115419
4.201686837
4.164706978
4.202328544
4.201544312
4.169874974
4.124718368
4.135249516
4.180487724
4.212174757
4.212964801
4.17534958
4.212333319
4.211801037
4.175356086
4.211913416
4.211913412
4.175356033
4.211800905
4.212333105
4.175349262
4.212964373
4.212174265
4.180487126
4.135248931
4.092175335
4.132345749
4.1688648
4.169673555
4.127235639
4.169044601
4.168545225
4.127227841
4.168640243
4.168640251
4.127227763
4.168545089
4.169044391
4.127235339
4.169673164
4.168864351
4.132345214
4.092174786
4.07162578
4.11618393
4.147722584
4.148522558
4.111104449
4.147902048
4.147378173
4.111116828
4.14748859
4.147488572
4.111116757
4.14737801
4.147901833
4.111104147
4.14852217
4.147722155
4.116183403
4.071625229
3.91460365
3.968541173
4.015829645
4.017823426
3.96458041
4.017296239
4.016742234
3.964751497
4.016778889
4.016779156
3.964752079
4.016742749
4.017296704
3.964580936
4.017824224
4.015830882
3.968542787
3.914605527
3.998617096
4.046887309
4.101446041
4.103495678
4.042886544
4.102943777
4.102410214
4.043032702
4.10243255
4.102432796
4.043033235
4.102410647
4.10294417
4.042887005
4.103496418
4.101447221
4.046888863
3.998618918
4.030673656
4.086068143
4.133539742
4.135532521
4.08193087
4.134969489
4.134400869
4.082072163
4.134427062
4.134427259
4.082072564
4.134401211
4.134969807
4.081931283
4.135533224
4.133540881
4.086069647
4.030675418
4.049003295
4.104621731
4.152023305
4.154021856
4.100515303
4.153463854
4.15289042
4.100654249
4.152915931
4.152916062
4.100654486
4.1528906
4.153464051
4.100515637
4.154022495
4.152024369
4.104623141
4.049004958
3.991295213
4.039477148
4.093897008
4.095940272
4.035390403
4.095374629
4.094839089
4.035527112
4.094853694
4.09485376
4.0355272
4.094839081
4.095374689
4.035390637
4.095940816
4.093897958
4.039478421
3.991296731
4.046825009
4.102405726
4.149787559
4.151778662
4.098278565
4.151220449
4.150647582
4.098417962
4.150672816
4.150672824
4.098417889
4.150647449
4.151220409
4.098278732
4.151779141
4.149788425
4.102406886
4.046826396
4.044557739
4.10014823
4.147490081
4.149478526
4.096013262
4.148919352
4.148347097
4.0961546
4.148373159
4.148373114
4.096154422
4.14834687
4.148919239
4.096013373
4.149478937
4.147490853
4.100149253
4.044558933
3.991923291
4.040078577
4.094509327
4.096547499
4.035993635
4.095984328
4.095448758
4.036131737
4.095463868
4.095463834
4.036131567
4.095448557
4.09598423
4.035993724
4.096547834
4.094509942
4.040079361
3.991924162
4.042924999
4.098489617
4.145843219
4.147828273
4.094355135
4.147270045
4.146698407
4.094496677
4.146724913
4.146724895
4.094496571
4.146698227
4.147269848
4.094355004
4.14782829
4.145843472
4.098490023
4.042925517
4.042246038
4.0978292
4.145155243
4.147138259
4.093694341
4.146580274
4.146008683
4.093835463
4.146034976
4.146035033
4.09383548
4.146008593
4.146580036
4.093694037
4.147138012
4.145155192
4.09782932
4.0422463
3.989251321
4.03738136
4.091815913
4.09385277
4.033295356
4.093288812
4.092753703
4.033435031
4.092770526
4.092770637
4.033435201
4.092753757
4.093288659
4.033295051
4.093852438
4.091815715
4.03738128
3.989251364
4.041133607
4.096708
4.144037835
4.146021079
4.092574672
4.145463185
4.144891591
4.092716406
4.144918567
4.14491868
4.092716583
4.144891669
4.145463043
4.092574338
4.14602065
4.144037464
4.096707672
4.04113338
4.039672421
4.095227364
4.142567977
4.144551069
4.091089901
4.143991279
4.143420098
4.091230936
4.1434467
4.14344678
4.091231043
4.14342011
4.143991093
4.091089517
4.14455054
4.142567426
4.095226773
4.039671907
3.989826395
4.037985904
4.092408792
4.09444751
4.03391321
4.093888441
4.093353245
4.034055405
4.093371165
4.093371209
4.034055426
4.09335317
4.093888198
4.033912783
4.094446912
4.092408124
4.037985141
3.9898257
4.038338398
4.093875685
4.141234129
4.143219949
4.089735347
4.14265796
4.142087607
4.08987593
4.142113365
4.142113381
4.08987588
4.142087466
4.142657675
4.089734898
4.143219337
4.141233428
4.093874862
4.038337618
4.05176952
4.107412892
4.154815389
4.156810407
4.103315353
4.15626377
4.155695419
4.103464925
4.155723935
4.155723934
4.103464856
4.15569527
4.156263507
4.103314959
4.156809874
4.154814786
4.107412169
4.051768842
3.991514409
4.03969802
4.094115941
4.096155312
4.03561509
4.095595745
4.095060987
4.035762219
4.095083118
4.095083116
4.035762119
4.09506084
4.095595494
4.035614727
4.096154838
4.094115405
4.039697392
3.991513793
3.966794059
4.021351988
4.068450367
4.070450738
4.017320349
4.069917082
4.069359179
4.017475582
4.069385667
4.069385652
4.017475486
4.069359011
4.069916832
4.017320001
4.070450287
4.068449877
4.021351389
3.966793458
3.892618302
3.957499603
4.019491574
4.022799826
3.954956141
4.022371412
4.02184885
3.955250726
4.021744775
4.021745316
3.955252117
4.021850732
4.022373712
3.954958843
4.022802969
4.019495049
3.957503123
3.892621729
3.993214702
4.051320278
4.122380602
4.125786076
4.04872569
4.125310231
4.124823565
4.048982101
4.124692251
4.124692762
4.048983407
4.124825327
4.125312405
4.048728264
4.125789101
4.122383969
4.051323698
3.993218043
4.038358932
4.105329744
4.167719866
4.171035418
4.102583564
4.170561059
4.170017575
4.102842722
4.169903764
4.169904209
4.102843856
4.170019162
4.170563062
4.102585987
4.171038294
4.167723087
4.105333023
4.038362134
4.062145535
4.1294615
4.191738341
4.195058594
4.126759218
4.194594062
4.194044858
4.127016964
4.19393168
4.193932027
4.127017841
4.194046139
4.194595767
4.126761358
4.195061194
4.191741283
4.129464513
4.062148497
3.988296851
4.046294026
4.117209544
4.120609961
4.043593023
4.120115655
4.119625671
4.04384071
4.119487678
4.119487918
4.043841321
4.119626594
4.120117004
4.04359481
4.120612202
4.117212125
4.046296685
3.988299481
4.05956068
4.12679385
4.18908075
4.192394239
4.124065619
4.191928979
4.191380806
4.124324358
4.19126654
4.191266684
4.124324695
4.19138141
4.191929983
4.12406707
4.192396126
4.189082973
4.126796165
4.059562969
4.056537175
4.123795631
4.18601307
4.189322327
4.121055296
4.188855567
4.188308015
4.121316456
4.188194791
4.188194838
4.12131658
4.18830834
4.18885626
4.121056405
4.189323841
4.1860149
4.123797524
4.05653903
3.989342988
4.047306341
4.118237268
4.121631878
4.044610866
4.121142454
4.120652856
4.04486123
4.12051592
4.120515953
4.04486127
4.12065304
4.121142916
4.044611644
4.121632977
4.118238604
4.047307734
3.989344299
4.054386899
4.121595746
4.18384036
4.187146451
4.11885612
4.186680953
4.186134332
4.119117757
4.186021443
4.186021484
4.119117823
4.186134429
4.186681154
4.118856485
4.187147039
4.183841205
4.121596665
4.054387875
4.053723348
4.120965417
4.183164841
4.186468192
4.11822527
4.186003099
4.185456303
4.118486494
4.185343468
4.18534359
4.118486683
4.185456452
4.186003174
4.118225352
4.186468412
4.183165303
4.12096606
4.053724061
3.985859127
4.043783584
4.114716689
4.118109639
4.041084826
4.117619265
4.117130379
4.041336758
4.116994672
4.11699485
4.041337096
4.117130637
4.117619358
4.041084805
4.118109643
4.114716873
4.043783895
3.985859553
4.052296161
4.11952294
4.181727715
4.185031421
4.116784438
4.184566595
4.184019952
4.117046256
4.183907514
4.183907687
4.117046581
4.1840202
4.184566647
4.116784312
4.185031221
4.181727601
4.119522872
4.052296205
4.05000484
4.117198196
4.17941991
4.182723343
4.114452553
4.182255167
4.181708937
4.114712784
4.181595608
4.181595736
4.11471301
4.181709084
4.182255132
4.11445232
4.182722959
4.179419512
4.117197743
4.050004484
3.986521888
4.044475833
4.115401647
4.118797517
4.041794705
4.118313617
4.117825156
4.042050017
4.117690518
4.117690597
4.042050129
4.117825177
4.118313479
4.041794377
4.118797
4.115401053
4.044475122
3.986521267
4.04822361
4.115411073
4.177636053
4.180942745
4.112661715
4.180472098
4.179926182
4.112921962
4.179812542
4.179812584
4.112921977
4.179926104
4.180471883
4.112661326
4.18094217
4.177635381
4.115410253
4.04822286
4.064292188
4.131609134
4.193914065
4.197233426
4.128915824
4.196783059
4.196240956
4.129187859
4.196130415
4.19613043
4.129187837
4.196240846
4.196782835
4.128915461
4.197232904
4.193913467
4.131608403
4.064291524
3.988078451
4.046067085
4.116971067
4.12036682
4.043375021
4.119883858
4.11939609
4.043635234
4.119264686
4.119264706
4.043635174
4.119395974
4.119883638
4.043374687
4.120366363
4.116970552
4.046066468
3.98807788
3.957961826
4.023708952
4.085491255
4.088807502
4.021078576
4.088369825
4.087838973
4.021355707
4.087727748
4.087727747
4.021355651
4.087838839
4.088369616
4.021078271
4.088807089
4.085490804
4.023708394
3.957961304
3.889320689
3.965093998
4.042123266
4.046828624
3.964110593
4.046455279
4.045999185
3.96452714
4.045750023
4.045750782
3.964529227
4.046002347
4.046459279
3.96411515
4.046833502
4.04212802
3.965098178
3.889324262
4.006204248
4.074167622
4.162124509
4.166977627
4.073121551
4.166528783
4.166127607
4.073482446
4.165834485
4.165835208
4.073484427
4.166130627
4.166532629
4.07312595
4.166982368
4.162129147
4.074171705
4.00620775
4.064946879
4.143568343
4.221271636
4.225997574
4.142364239
4.225570643
4.225084623
4.142741775
4.224827435
4.224828079
4.142743555
4.225087397
4.225574241
4.142368407
4.226002088
4.221276066
4.143572247
4.064950218
4.094242031
4.173351174
4.250893822
4.255621487
4.17220626
4.255210686
4.254717153
4.172583131
4.254462633
4.254463155
4.172584575
4.254719484
4.25521381
4.172209959
4.255625546
4.250897831
4.173354724
4.094245082
4.003752932
4.071588827
4.159407723
4.164257848
4.070417503
4.163787803
4.163380913
4.070772522
4.163082544
4.163082928
4.070773605
4.16338274
4.163790376
4.070420635
4.164261347
4.159411217
4.071591919
4.003755585
4.09114479
4.170118381
4.247709238
4.25243208
4.168943475
4.25202031
4.251528484
4.16932274
4.25127237
4.251272621
4.16932345
4.251529802
4.252022306
4.168946019
4.252434988
4.247712185
4.170121007
4.091147026
4.087166935
4.166181039
4.243669836
4.248386428
4.164988076
4.247972169
4.247480895
4.165370208
4.247225881
4.247226001
4.16537061
4.247481756
4.247973619
4.164990012
4.248388705
4.243672173
4.166183103
4.087168638
4.005303201
4.073095244
4.160938433
4.165782252
4.071935718
4.165320321
4.164914574
4.072295058
4.164617906
4.164618001
4.072295279
4.164915124
4.165321289
4.071937044
4.165783845
4.160940095
4.073096713
4.005304469
4.084601511
4.163537988
4.241072461
4.24578659
4.162346496
4.245373912
4.244884112
4.162729323
4.244629203
4.24462931
4.162729595
4.244884561
4.245374604
4.162347409
4.245787734
4.241073756
4.163539256
4.08460268
4.084102432
4.163088602
4.240559021
4.245269701
4.161896891
4.244857811
4.24436762
4.162279457
4.244113049
4.244113261
4.162279895
4.24436817
4.244858415
4.161897579
4.245270564
4.240560102
4.163089735
4.084103584
4.001082014
4.068821525
4.156661451
4.161503207
4.067655312
4.161039617
4.160635038
4.068015934
4.160339075
4.160339343
4.068016513
4.160635662
4.161040173
4.06765581
4.161503762
4.156662173
4.068822308
4.001082867
4.08244428
4.161408284
4.238885418
4.243596651
4.160218334
4.243185075
4.24269531
4.160601436
4.242440874
4.242441128
4.160601977
4.242695871
4.243185514
4.160218632
4.243596886
4.23888572
4.16140858
4.082444661
4.079177846
4.158090791
4.235592007
4.240303164
4.156890428
4.239886407
4.23939697
4.157270898
4.239141072
4.239141267
4.157271303
4.239397371
4.239886683
4.156890527
4.240303104
4.235591902
4.158090577
4.07917771
4.001850242
4.069617945
4.157456207
4.162301781
4.068473386
4.161846098
4.16144258
4.068838082
4.161147619
4.16114775
4.068838332
4.161442798
4.161846201
4.068473311
4.162301498
4.157455811
4.069617376
4.001849749
4.077007198
4.155928388
4.233412245
4.238127078
4.154722687
4.237707635
4.237218217
4.155103417
4.236961933
4.236962012
4.155103538
4.237218287
4.237707599
4.154722485
4.238126669
4.233411708
4.155927655
4.077006531
4.095464395
4.174539535
4.252147313
4.256878506
4.17340333
4.256483773
4.256000055
4.173798471
4.25574757
4.255747618
4.173798529
4.256000052
4.256483681
4.173403106
4.256878108
4.252146819
4.174538874
4.0954638
4.003211683
4.071023301
4.158826632
4.163671313
4.069866546
4.163216825
4.162814876
4.070234737
4.162521424
4.162521464
4.070234753
4.162814846
4.163216715
4.069866332
4.163670966
4.158826223
4.071022766
4.003211221
3.967580744
4.044507293
4.121308271
4.12602312
4.043422985
4.125641447
4.125168835
4.043822938
4.124917564
4.124917594
4.043822943
4.125168782
4.125641336
4.043422789
4.126022813
4.121307924
4.044506845
3.967580355
3.870249713
3.955578499
4.048826147
4.054921273
3.9560672
4.054498296
4.054089814
3.95654166
4.053705133
4.053705902
3.956543869
4.054093322
4.054502707
3.956071956
4.054925895
4.048829982
3.955581139
3.870251339
4.001560471
4.07751543
4.184218954
4.190533183
4.077912624
4.190000189
4.189665437
4.078312623
4.189221489
4.189222234
4.07831475
4.189668843
4.190004503
4.077917292
4.190537746
4.184222756
4.077518053
4.001562097
4.075258503
4.164286172
4.258583939
4.264724776
4.164535676
4.26424103
4.263794718
4.164966722
4.263399712
4.263400377
4.164968642
4.263797848
4.264245065
4.164540096
4.264729108
4.25858755
4.164288651
4.075260014
4.109929661
4.199610154
4.293696798
4.299835086
4.199935716
4.299374641
4.298918237
4.200366123
4.298528081
4.298528616
4.200367672
4.298920852
4.299378113
4.199939589
4.299838916
4.293700005
4.199612347
4.109930987
4.001347698
4.077176313
4.18373553
4.190044943
4.077438251
4.189491907
4.189149106
4.077835078
4.188700525
4.188700914
4.077836236
4.189151164
4.189494762
4.077441499
4.190048206
4.18373827
4.077178154
4.001348762
4.106178812
4.195669291
4.289842714
4.295979113
4.195962562
4.29551839
4.295064507
4.196397696
4.294672738
4.294672978
4.196398433
4.295065959
4.295520553
4.195965121
4.295981733
4.289844926
4.195670758
4.106179583
4.100995811
4.190541678
4.284578129
4.290705967
4.19080955
4.290241322
4.289787949
4.191247907
4.289397152
4.289397256
4.191248301
4.289788866
4.290242838
4.190811419
4.290707918
4.284579773
4.190542708
4.100996307
4.003369157
4.079134814
4.185737288
4.19203973
4.079416905
4.191498603
4.191158004
4.07981972
4.190711617
4.190711694
4.079819906
4.191158549
4.191499562
4.079418116
4.19204102
4.185738402
4.079135592
4.003369629
4.098125287
4.187563499
4.281664059
4.287790228
4.187833722
4.287327467
4.286876125
4.188273105
4.286485454
4.286485588
4.18827346
4.28687675
4.287328398
4.187834845
4.28779148
4.281665317
4.187564574
4.09812621
4.097939245
4.187444715
4.281462616
4.287584635
4.187715703
4.287123339
4.286671407
4.188155225
4.286281383
4.286281665
4.188155876
4.286672322
4.287124423
4.187716891
4.287585957
4.281464028
4.18744608
4.097940494
3.998513805
4.07421505
4.180804146
4.187103939
4.074486307
4.186560043
4.186221042
4.07489023
4.185775295
4.185775648
4.074891048
4.186222052
4.186561092
4.074487324
4.187104994
4.180805283
4.074216151
3.998514887
4.096168852