/*--------------------------------*- C++ -*----------------------------------*\
  =========                 |
  \\      /  F ield         | OpenFOAM: The Open Source CFD Toolbox
   \\    /   O peration     | Website:  https://openfoam.org
    \\  /    A nd           | Version:  7
     \\/     M anipulation  |
\*---------------------------------------------------------------------------*/
FoamFile
{
    version     2.0;
    format      ascii;
    class       surfaceScalarField;
    location    "2";
    object      phi;
}
// * * * * * * * * * * * * * * * * * * * * * * * * * * * * * * * * * * * * * //

dimensions      [0 3 -1 0 0 0 0];

internalField   nonuniform List<scalar> 
30564
(
5.291287465e-08
7.955586099e-08
4.167979855e-05
8.175499672e-08
7.743125639e-08
4.177639285e-05
4.292732934e-08
7.979417738e-08
4.17712877e-05
6.839960883e-09
7.988751713e-08
4.176853542e-05
5.509333416e-08
7.736923881e-08
4.175705584e-05
1.983417792e-08
7.984270624e-08
4.176773296e-05
-1.434393854e-08
7.983026279e-08
4.176670237e-05
3.477061022e-08
7.739916703e-08
4.175619051e-05
1.742140177e-12
7.984814379e-08
4.176726796e-05
-3.47669448e-08
7.984794477e-08
4.176726765e-05
1.434658405e-08
7.739865786e-08
4.175618892e-05
-1.983262922e-08
7.982962517e-08
4.176670056e-05
-5.509413781e-08
7.98419121e-08
4.176772902e-05
-6.842752309e-09
7.73684118e-08
4.175705023e-05
-4.293146308e-08
7.988675433e-08
4.17685288e-05
-8.175917356e-08
7.979352407e-08
4.17712811e-05
-5.291593895e-08
7.743071324e-08
4.177638716e-05
7.955544334e-08
4.16797941e-05
5.107890831e-08
9.009813736e-08
4.182108029e-05
8.371971893e-08
9.200044549e-08
4.191510163e-05
4.286502722e-08
9.016898192e-08
4.191316525e-05
5.053130222e-09
9.004932773e-08
4.191042432e-05
5.688957067e-08
9.193487601e-08
4.189591842e-05
1.975078343e-08
9.008360479e-08
4.190964786e-05
-1.635044464e-08
9.008314497e-08
4.190863946e-05
3.658986827e-08
9.189793791e-08
4.189490678e-05
1.613075179e-12
9.007257726e-08
4.190914623e-05
-3.658639377e-08
9.007234799e-08
4.190914588e-05
1.635292508e-08
9.189736446e-08
4.189490521e-05
-1.974930772e-08
9.008224888e-08
4.190863763e-05
-5.689035684e-08
9.008257656e-08
4.190964397e-05
-5.055840569e-09
9.193386209e-08
4.189591291e-05
-4.28690547e-08
9.004845209e-08
4.191041781e-05
-8.372381026e-08
9.016828434e-08
4.191315873e-05
-5.108187574e-08
9.199998765e-08
4.191509599e-05
9.009782117e-08
4.182107584e-05
5.32185184e-08
6.199143392e-08
4.178713403e-05
8.165935816e-08
6.185326395e-08
4.188434702e-05
4.296732462e-08
6.208892706e-08
4.187900485e-05
7.03030225e-09
6.206547122e-08
4.187623516e-05
5.494456989e-08
6.181797993e-08
4.186485557e-05
1.984623716e-08
6.205789198e-08
4.187541918e-05
-1.414469594e-08
6.205417479e-08
4.187435293e-05
3.460528038e-08
6.180628866e-08
4.186402029e-05
1.442226717e-12
6.205210113e-08
4.187495002e-05
-3.46020725e-08
6.205180439e-08
4.187494963e-05
1.414701513e-08
6.180548501e-08
4.186401862e-05
-1.984475842e-08
6.205306241e-08
4.187435095e-05
-5.494523022e-08
6.205659759e-08
4.187541525e-05
-7.032804114e-09
6.181680102e-08
4.186485013e-05
-4.297114029e-08
6.206453009e-08
4.187622876e-05
-8.166321525e-08
6.208840102e-08
4.187899846e-05
-5.322137647e-08
6.185309995e-08
4.188434144e-05
6.199158739e-08
4.178712966e-05
5.341291852e-08
2.195019462e-08
4.179899151e-05
8.149292026e-08
2.039397952e-08
4.189614839e-05
4.294586574e-08
2.206432545e-08
4.189092206e-05
7.16369994e-09
2.211579501e-08
4.188816379e-05
5.477485867e-08
2.031558489e-08
4.187667272e-05
1.983468465e-08
2.206878849e-08
4.188734222e-05
-1.398742756e-08
2.206081341e-08
4.188626625e-05
3.444632275e-08
2.033683658e-08
4.187584307e-05
1.211330082e-12
2.207294762e-08
4.188686786e-05
-3.444352935e-08
2.207266416e-08
4.188686738e-05
1.398947447e-08
2.033606051e-08
4.187584124e-05
-1.983324202e-08
2.205975019e-08
4.188626411e-05
-5.477528286e-08
2.20675131e-08
4.188733833e-05
-7.165878377e-09
2.03143182e-08
4.187666743e-05
-4.294921779e-08
2.211487234e-08
4.18881577e-05
-8.149639966e-08
2.20638074e-08
4.189091594e-05
-5.34154678e-08
2.039374978e-08
4.189614302e-05
2.195035166e-08
4.17989872e-05
5.088657822e-08
7.030884128e-08
4.17834484e-05
8.371112775e-08
7.220611791e-08
4.187766027e-05
4.281698797e-08
7.030633027e-08
4.187532992e-05
4.929763007e-09
7.020468525e-08
4.18725649e-05
5.694724003e-08
7.222495147e-08
4.185837884e-05
1.973014933e-08
7.024329752e-08
4.187178473e-05
-1.644106712e-08
7.024955759e-08
4.187076533e-05
3.666887486e-08
7.218305216e-08
4.185737441e-05
9.131336222e-13
7.02319938e-08
4.187128287e-05
-3.666661416e-08
7.023170867e-08
4.187128234e-05
1.644274759e-08
7.21821963e-08
4.185737254e-05
-1.972876492e-08
7.024842258e-08
4.187076321e-05
-5.694744718e-08
7.024203734e-08
4.187178111e-05
-4.931419122e-09
7.222389856e-08
4.185837406e-05
-4.281975451e-08
7.020418482e-08
4.187255939e-05
-8.371410508e-08
7.030646658e-08
4.187532431e-05
-5.088871939e-08
7.220693113e-08
4.18776553e-05
7.031013642e-08
4.178344434e-05
5.328285913e-08
3.307081751e-08
4.179628176e-05
8.160936819e-08
3.300132591e-08
4.189360256e-05
4.293895182e-08
3.311502744e-08
4.188817536e-05
7.037009541e-09
3.309945308e-08
4.188540224e-05
5.489295531e-08
3.297611491e-08
4.187412917e-05
1.982783872e-08
3.309360712e-08
4.188459064e-05
-1.41180145e-08
3.309346813e-08
4.188351538e-05
3.456661081e-08
3.296860461e-08
4.187329176e-05
6.957862935e-13
3.30910503e-08
4.188411325e-05
-3.456482943e-08
3.309074474e-08
4.188411265e-05
1.411946063e-08
3.296801832e-08
4.187328989e-05
-1.982640737e-08
3.309280938e-08
4.188351327e-05
-5.489280414e-08
3.309285726e-08
4.188458729e-05
-7.037981407e-09
3.297566177e-08
4.187412498e-05
-4.294094653e-08
3.309951224e-08
4.188539733e-05
-8.161153507e-08
3.31158082e-08
4.188817039e-05
-5.328439839e-08
3.300274964e-08
4.189359797e-05
3.307294231e-08
4.179627788e-05
5.331845073e-08
-1.689730673e-09
4.179382857e-05
8.155751485e-08
-3.538847007e-09
4.189109083e-05
4.293239325e-08
-1.592044963e-09
4.188570561e-05
7.074720109e-09
-1.521297585e-09
4.188293319e-05
5.484727926e-08
-3.600981906e-09
4.187160579e-05
1.982761016e-08
-1.568559317e-09
4.188211731e-05
-1.407260333e-08
-1.575343355e-09
4.188104198e-05
3.45235308e-08
-3.574082175e-09
4.187077367e-05
4.511228233e-13
-1.563049483e-09
4.188164313e-05
-3.452198598e-08
-1.563122358e-09
4.188164258e-05
1.407394218e-08
-3.574241047e-09
4.187077194e-05
-1.982609839e-08
-1.575246176e-09
4.188104002e-05
-5.48466722e-08
-1.568501207e-09
4.188211447e-05
-7.075008829e-09
-3.60056787e-09
4.187160228e-05
-4.293349745e-08
-1.520305821e-09
4.188292911e-05
-8.155885374e-08
-1.59024759e-09
4.188570133e-05
-5.331915461e-08
-3.536142992e-09
4.189108676e-05
-1.686346295e-09
4.1793825e-05
5.093059877e-08
4.608517285e-08
4.178402309e-05
8.365240146e-08
4.798937815e-08
4.187808153e-05
4.280472534e-08
4.605425721e-08
4.187591355e-05
4.9693565e-09
4.596489767e-08
4.187314951e-05
5.688953151e-08
4.802575259e-08
4.185879235e-05
1.97252781e-08
4.600601456e-08
4.187236536e-05
-1.639377642e-08
4.601306158e-08
4.187134721e-05
3.661678202e-08
4.798873999e-08
4.185779116e-05
4.364658846e-13
4.599714019e-08
4.18718643e-05
-3.661527134e-08
4.59973609e-08
4.187186389e-05
1.639530736e-08
4.798943773e-08
4.185778969e-05
-1.972365813e-08
4.601441016e-08
4.187134552e-05
-5.688842756e-08
4.600764708e-08
4.187236312e-05
-4.968923502e-09
4.802782493e-08
4.185878953e-05
-4.28048859e-08
4.596757208e-08
4.187314621e-05
-8.365263591e-08
4.605769567e-08
4.187590994e-05
-5.093051654e-08
4.79932762e-08
4.187807784e-05
4.608965896e-08
4.178401969e-05
5.327983221e-08
1.116063586e-08
4.179400633e-05
8.160047995e-08
1.112313853e-08
4.189130638e-05
4.293110736e-08
1.118059482e-08
4.188589068e-05
7.034132108e-09
1.117733162e-08
4.188311312e-05
5.488568058e-08
1.111695841e-08
4.187182832e-05
1.98251974e-08
1.117510098e-08
4.188230024e-05
-1.411766511e-08
1.117511955e-08
4.18812274e-05
3.45630735e-08
1.111478123e-08
4.187099001e-05
7.192688448e-13
1.117457642e-08
4.188182423e-05
-3.456092696e-08
1.117486478e-08
4.188182398e-05
1.411995418e-08
1.111537884e-08
4.187098914e-05
-1.982313152e-08
1.117623316e-08
4.188122621e-05
-5.488402904e-08
1.117627923e-08
4.188229869e-05
-7.033032985e-09
1.111834812e-08
4.187182622e-05
-4.293047796e-08
1.117910162e-08
4.188311038e-05
-8.160027433e-08
1.118272622e-08
4.188588733e-05
-5.327925428e-08
1.112595848e-08
4.189130267e-05
1.116369121e-08
4.179400253e-05
5.327714576e-08
-2.282845077e-08
4.17930899e-05
8.159988062e-08
-2.479349463e-08
4.189037248e-05
4.293002849e-08
-2.275234694e-08
4.188496662e-05
7.032638269e-09
-2.266963167e-08
4.188218871e-05
5.488569075e-08
-2.483911054e-08
4.187089165e-05
1.982496802e-08
-2.27135698e-08
4.188137378e-05
-1.411842646e-08
-2.272029702e-08
4.188030124e-05
3.45639413e-08
-2.480695041e-08
4.187005327e-05
1.048503247e-12
-2.270627294e-08
4.188089871e-05
-3.456137533e-08
-2.270626275e-08
4.188089868e-05
1.412128623e-08
-2.480678727e-08
4.187005298e-05
-1.982274184e-08
-2.271992464e-08
4.188030059e-05
-5.488378287e-08
-2.271337468e-08
4.188137282e-05
-7.031196736e-09
-2.483896429e-08
4.187089006e-05
-4.292912067e-08
-2.266935939e-08
4.188218626e-05
-8.159910545e-08
-2.275165253e-08
4.188496342e-05
-5.327652639e-08
-2.479233489e-08
4.189036844e-05
-2.282636945e-08
4.179308572e-05
5.096148752e-08
2.713598113e-08
4.178179881e-05
8.361704986e-08
2.905304036e-08
4.187582447e-05
4.279879586e-08
2.707813883e-08
4.187369498e-05
4.997416486e-09
2.699741621e-08
4.187092943e-05
5.685328349e-08
2.910372919e-08
4.185653426e-05
1.972325497e-08
2.704251456e-08
4.18701439e-05
-1.636239915e-08
2.705003788e-08
4.186912656e-05
3.658377647e-08
2.907160196e-08
4.185553328e-05
1.087270485e-12
2.703535922e-08
4.186964335e-05
-3.658102545e-08
2.703525661e-08
4.186964349e-05
1.636535165e-08
2.907131272e-08
4.185553334e-05
-1.97211806e-08
2.70497292e-08
4.186912608e-05
-5.685148413e-08
2.704184385e-08
4.1870143e-05
-4.995987263e-09
2.910285555e-08
4.185653256e-05
-4.279769243e-08
2.699651936e-08
4.187092676e-05
-8.361612178e-08
2.707749184e-08
4.187369141e-05
-5.096037105e-08
2.905290347e-08
4.187582004e-05
2.713665144e-08
4.178179402e-05
5.328073346e-08
-6.320734983e-09
4.179254334e-05
8.160022296e-08
-6.330025916e-09
4.188983088e-05
4.29301259e-08
-6.32537979e-09
4.188442632e-05
7.033468295e-09
-6.320804271e-09
4.188164821e-05
5.488433014e-08
-6.32145219e-09
4.187035147e-05
1.982451555e-08
-6.317425824e-09
4.188083316e-05
-1.411848102e-08
-6.316351732e-09
4.18797611e-05
3.456288574e-08
-6.31843492e-09
4.186951135e-05
1.024893064e-12
-6.316043062e-09
4.188035748e-05
-3.456027756e-08
-6.316235056e-09
4.188035764e-05
1.412133746e-08
-6.318965837e-09
4.186951144e-05
-1.98228117e-08
-6.317128344e-09
4.187976035e-05
-5.488285141e-08
-6.31860541e-09
4.188083193e-05
-7.032267723e-09
-6.322931065e-09
4.187034929e-05
-4.292909086e-08
-6.322364178e-09
4.188164496e-05
-8.159918842e-08
-6.326777658e-09
4.188442208e-05
-5.327934098e-08
-6.330989515e-09
4.188982573e-05
-6.321007085e-09
4.179253785e-05
5.327700039e-08
-3.952948374e-08
4.179228313e-05
8.160737381e-08
-4.148887721e-08
4.188957882e-05
4.293196891e-08
-3.948257706e-08
4.188416945e-05
7.029962512e-09
-3.939210688e-08
4.188139089e-05
5.489065091e-08
-4.15219612e-08
4.18701001e-05
1.98252259e-08
-3.943084955e-08
4.188057648e-05
-1.412420708e-08
-3.943608479e-08
4.187950503e-05
3.456817524e-08
-4.148360276e-08
4.186925846e-05
8.565406606e-13
-3.942055658e-08
4.188010006e-05
-3.456589605e-08
-3.942078551e-08
4.188010016e-05
1.412669239e-08
-4.148418762e-08
4.186925832e-05
-1.982396664e-08
-3.943696329e-08
4.187950383e-05
-5.488963385e-08
-3.94321359e-08
4.188057469e-05
-7.029107476e-09
-4.152351113e-08
4.187009733e-05
-4.29311409e-08
-3.939373684e-08
4.188138699e-05
-8.16063416e-08
-3.948407562e-08
4.188416459e-05
-5.327541902e-08
-4.148997123e-08
4.18895731e-05
-3.953001209e-08
4.179227716e-05
5.092142988e-08
9.370515668e-09
4.178288651e-05
8.367517574e-08
1.113783836e-08
4.187692952e-05
4.280873525e-08
9.283691562e-09
4.187479053e-05
4.957151806e-09
9.210641618e-09
4.187202742e-05
5.690671387e-08
1.119715852e-08
4.185764822e-05
1.972606694e-08
9.260108284e-09
4.187124348e-05
-1.641219558e-08
9.268638558e-09
4.187022874e-05
3.663297115e-08
1.117169506e-08
4.185664166e-05
6.591801033e-13
9.256260384e-09
4.187074146e-05
-3.663097559e-08
9.256119795e-09
4.187074148e-05
1.641430014e-08
1.117111269e-08
4.185664123e-05
-1.972520179e-08
9.267894321e-09
4.187022706e-05
-5.690609592e-08
9.258898899e-09
4.187124116e-05
-4.956600432e-09
1.119575357e-08
4.185764491e-05
-4.280810911e-08
9.209087817e-09
4.187202301e-05
-8.367413704e-08
9.282256904e-09
4.187478523e-05
-5.09197299e-08
1.113663987e-08
4.187692345e-05
9.369647219e-09
4.178288026e-05
5.330772177e-08
-2.288827556e-08
4.179130681e-05
8.156841036e-08
-2.293938882e-08
4.188857383e-05
4.293635486e-08
-2.292312659e-08
4.188318034e-05
7.072824155e-09
-2.290738361e-08
4.188040403e-05
5.485697481e-08
-2.290486629e-08
4.18690859e-05
1.983061919e-08
-2.289705639e-08
4.187958662e-05
-1.408068829e-08
-2.289330481e-08
4.187851475e-05
3.453140434e-08
-2.289555293e-08
4.186824898e-05
6.082520628e-13
-2.289182747e-08
4.187911269e-05
-3.45296832e-08
-2.289209559e-08
4.187911255e-05
1.408263201e-08
-2.289598469e-08
4.186824841e-05
-1.983014269e-08
-2.289399744e-08
4.187851256e-05
-5.48566134e-08
-2.28980436e-08
4.18795839e-05
-7.072578752e-09
-2.290607741e-08
4.186908217e-05
-4.293587068e-08
-2.290862822e-08
4.188039935e-05
-8.156743028e-08
-2.292429422e-08
4.188317486e-05
-5.330605181e-08
-2.294057993e-08
4.188856762e-05
-2.288889039e-08
4.179130061e-05
5.329411139e-08
-6.984748693e-08
4.180597861e-05
8.16397789e-08
-7.184965503e-08
4.190327573e-05
4.29531088e-08
-6.985227799e-08
4.189791513e-05
7.042457204e-09
-6.976365208e-08
4.189514756e-05
5.491002421e-08
-7.187910192e-08
4.188382901e-05
1.983429631e-08
-6.979940479e-08
4.189433959e-05
-1.41259714e-08
-6.98025104e-08
4.189326952e-05
3.457691284e-08
-7.183995574e-08
4.188299002e-05
4.840062563e-13
-6.978797305e-08
4.189386455e-05
-3.45751406e-08
-6.978808871e-08
4.189386438e-05
1.412777247e-08
-7.184029865e-08
4.188298927e-05
-1.983395812e-08
-6.980303521e-08
4.189326699e-05
-5.490987856e-08
-6.980016987e-08
4.189433654e-05
-7.042333292e-09
-7.187999466e-08
4.18838251e-05
-4.295272107e-08
-6.976451277e-08
4.18951429e-05
-8.163902599e-08
-6.985324529e-08
4.18979098e-05
-5.329208236e-08
-7.185006412e-08
4.190327008e-05
-6.984809253e-08
4.180597261e-05
5.090441198e-08
-2.615884978e-08
4.178809713e-05
8.369161546e-08
-2.451267886e-08
4.188216949e-05
4.283252798e-08
-2.634894343e-08
4.188002931e-05
4.984188197e-09
-2.642166028e-08
4.18772686e-05
5.691999419e-08
-2.439879009e-08
4.186288575e-05
1.974288408e-08
-2.637277183e-08
4.187648873e-05
-1.640135267e-08
-2.63604193e-08
4.187548199e-05
3.663324605e-08
-2.442484246e-08
4.186187805e-05
5.095765606e-13
-2.637317132e-08
4.18759884e-05
-3.663148277e-08
-2.63733356e-08
4.187598822e-05
1.640314127e-08
-2.442508845e-08
4.186187712e-05
-1.974259786e-08
-2.636068953e-08
4.187547925e-05
-5.691992293e-08
-2.637327159e-08
4.187648545e-05
-4.984083607e-09
-2.439935924e-08
4.186288173e-05
-4.283238263e-08
-2.642228496e-08
4.187726385e-05
-8.369040567e-08
-2.634912213e-08
4.188002435e-05
-5.090275141e-08
-2.451308043e-08
4.18821637e-05
-2.615861628e-08
4.178809196e-05
5.319291852e-08
4.173296951e-05
8.146123166e-08
4.182993981e-05
4.286142683e-08
4.182455809e-05
7.023954807e-09
4.182180405e-05
5.479679438e-08
4.18105601e-05
1.979445e-08
4.182099865e-05
-1.409534487e-08
4.181993694e-05
3.450766462e-08
4.180972982e-05
4.68471353e-13
4.182053321e-05
-3.450569862e-08
4.1820533e-05
1.409728324e-08
4.180972891e-05
-1.979420018e-08
4.181993398e-05
-5.479669147e-08
4.182099523e-05
-7.0238618e-09
4.181055583e-05
-4.286081689e-08
4.182179922e-05
-8.146034955e-08
4.18245526e-05
-5.319061795e-08
4.182993444e-05
4.173296409e-05
7.638308747e-08
1.031723257e-07
4.185210665e-05
1.068519981e-07
1.012552811e-07
4.199756787e-05
6.976409005e-08
1.034234716e-07
4.205659709e-05
3.211491336e-08
1.035046247e-07
4.205445675e-05
6.898504085e-08
1.011631348e-07
4.197195483e-05
3.30700772e-08
1.034955367e-07
4.205186918e-05
-1.608460684e-09
1.034911514e-07
4.204966948e-05
3.502004204e-08
1.01198347e-07
4.197132023e-05
1.283249385e-12
1.03490138e-07
4.205055457e-05
-3.501759239e-08
1.034899193e-07
4.205055332e-05
1.610011498e-09
1.011978931e-07
4.197131567e-05
-3.30700067e-08
1.034905524e-07
4.204966373e-05
-6.898714876e-08
1.034948271e-07
4.205185896e-05
-3.211894083e-08
1.011624255e-07
4.197194157e-05
-6.976904802e-08
1.03504014e-07
4.205444244e-05
-1.068563715e-07
1.03422993e-07
4.205658416e-05
-7.638585397e-08
1.012549368e-07
4.199755794e-05
1.03172114e-07
4.185209992e-05
7.534007191e-08
1.28551749e-07
4.207322467e-05
1.079755539e-07
1.296046699e-07
4.220812759e-05
6.953557209e-08
1.287400867e-07
4.227890055e-05
3.083757514e-08
1.286361837e-07
4.227675132e-05
6.994621775e-08
1.293622908e-07
4.218265514e-05
3.294839035e-08
1.285965207e-07
4.227423347e-05
-2.794417368e-09
1.285477177e-07
4.227208534e-05
3.611605276e-08
1.293446421e-07
4.218191911e-05
1.130792307e-12
1.285918565e-07
4.227289346e-05
-3.611372561e-08
1.285916504e-07
4.227289219e-05
2.795934694e-09
1.293441494e-07
4.218191444e-05
-3.294834597e-08
1.285468826e-07
4.227207981e-05
-6.994828663e-08
1.285956174e-07
4.22742235e-05
-3.084149581e-08
1.293614891e-07
4.218264222e-05
-6.954040813e-08
1.286355869e-07
4.227673736e-05
-1.079798233e-07
1.287397493e-07
4.227888791e-05
-7.534274127e-08
1.296045976e-07
4.220811785e-05
1.285518963e-07
4.207321803e-05
7.675875393e-08
1.036201181e-07
4.208690576e-05
1.06561925e-07
1.031266869e-07
4.223361722e-05
6.983307777e-08
1.037947938e-07
4.229205834e-05
3.254462058e-08
1.037684188e-07
4.228990267e-05
6.861966253e-08
1.030402464e-07
4.220773123e-05
3.308651149e-08
1.037359228e-07
4.228726408e-05
-1.228793881e-09
1.037273506e-07
4.228500275e-05
3.463420822e-08
1.030295333e-07
4.220712522e-05
9.973201913e-13
1.037301948e-07
4.22859372e-05
-3.46320678e-08
1.037299136e-07
4.228593595e-05
1.230106255e-09
1.030287895e-07
4.220712082e-05
-3.308638325e-08
1.037263348e-07
4.22849969e-05
-6.862149781e-08
1.037348597e-07
4.228725432e-05
-3.254825588e-08
1.030394092e-07
4.220771878e-05
-6.983760438e-08
1.037680314e-07
4.228988929e-05
-1.065659234e-07
1.037949103e-07
4.229204621e-05
-7.676123314e-08
1.031272559e-07
4.223360784e-05
1.036209904e-07
4.20868994e-05
7.694880298e-08
6.101770407e-08
4.21164173e-05
1.064977661e-07
5.933828522e-08
4.226317747e-05
6.980899475e-08
6.135321786e-08
4.232160535e-05
3.258703768e-08
6.136889852e-08
4.23194701e-05
6.851857264e-08
5.92546103e-08
4.223734926e-05
3.305177882e-08
6.1343096e-08
4.231682659e-05
-1.16979108e-09
6.135751188e-08
4.231454545e-05
3.455027421e-08
5.925515116e-08
4.223674423e-05
7.958508857e-13
6.132710355e-08
4.231548654e-05
-3.454845803e-08
6.13267938e-08
4.231548522e-05
1.170961912e-09
5.925436237e-08
4.223673984e-05
-3.305153759e-08
6.135656008e-08
4.231453969e-05
-6.852006185e-08
6.134211946e-08
4.231681738e-05
-3.259014825e-08
5.925392547e-08
4.223733775e-05
-6.98129669e-08
6.136880299e-08
4.231945779e-05
-1.065012819e-07
6.135372809e-08
4.232159423e-05
-7.695098509e-08
5.933928822e-08
4.226316883e-05
6.101910129e-08
4.211641136e-05
7.505607642e-08
9.605945598e-08
4.202625124e-05
1.077230521e-07
9.713863974e-08
4.216124165e-05
6.94219817e-08
9.602209861e-08
4.223161148e-05
3.077442982e-08
9.594718565e-08
4.222943174e-05
6.98715154e-08
9.706176018e-08
4.213555651e-05
3.291566822e-08
9.591877916e-08
4.222689074e-05
-2.773341375e-09
9.588870793e-08
4.222471985e-05
3.608543086e-08
9.703857961e-08
4.213483881e-05
5.150292013e-13
9.591991169e-08
4.222554618e-05
-3.6084028e-08
9.591964391e-08
4.222554485e-05
2.774422972e-09
9.703791465e-08
4.213483432e-05
-3.291529911e-08
9.588784797e-08
4.222471465e-05
-6.987258079e-08
9.59180175e-08
4.222688244e-05
-3.077684069e-08
9.706154802e-08
4.21355463e-05
-6.942523917e-08
9.594768677e-08
4.222942082e-05
-1.0772598e-07
9.60234964e-08
4.223160159e-05
-7.505782311e-08
9.714072097e-08
4.216123388e-05
9.606206145e-08
4.202624591e-05
7.689412795e-08
5.649768778e-08
4.21106211e-05
1.064662401e-07
5.63190735e-08
4.225752083e-05
6.977174061e-08
5.66046792e-08
4.23157393e-05
3.254618524e-08
5.65788619e-08
4.231357982e-05
6.850979893e-08
5.627000265e-08
4.223166086e-05
3.303976344e-08
5.655995069e-08
4.231094329e-05
-1.193324445e-09
5.655807994e-08
4.230866609e-05
3.45595376e-08
5.625572904e-08
4.223105002e-05
2.991355234e-13
5.655473562e-08
4.23096033e-05
-3.455844934e-08
5.655456299e-08
4.230960205e-05
1.194285359e-09
5.625543048e-08
4.223104608e-05
-3.303914428e-08
5.655782154e-08
4.230866115e-05
-6.851017602e-08
5.65599634e-08
4.231093617e-05
-3.254776286e-08
5.627056844e-08
4.223165219e-05
-6.977395944e-08
5.658028181e-08
4.23135707e-05
-1.064683226e-07
5.660696795e-08
4.231573092e-05
-7.689524356e-08
5.632216279e-08
4.225751415e-05
5.650158083e-08
4.211061642e-05
7.689250906e-08
1.94669203e-08
4.210574532e-05
1.064342986e-07
1.807010959e-08
4.225258953e-05
6.976519242e-08
1.969078821e-08
4.231084758e-05
3.255651017e-08
1.972477622e-08
4.230868675e-05
6.848957163e-08
1.805133662e-08
4.222671554e-05
3.303773401e-08
1.971330451e-08
4.230604679e-05
-1.174666245e-09
1.973477726e-08
4.230377202e-05
3.45419985e-08
1.805247526e-08
4.222610948e-05
1.662737832e-13
1.970305358e-08
4.230470995e-05
-3.454102656e-08
1.970308722e-08
4.230470879e-05
1.175715242e-09
1.805270958e-08
4.2226106e-05
-3.303669699e-08
1.973539981e-08
4.230376771e-05
-6.84892837e-08
1.971429379e-08
4.230604084e-05
-3.255712214e-08
1.805292858e-08
4.22267085e-05
-6.97664261e-08
1.972727445e-08
4.230867928e-05
-1.064354217e-07
1.969431852e-08
4.231084069e-05
-7.689277205e-08
1.807454542e-08
4.225258389e-05
1.947221703e-08
4.210574135e-05
7.505663155e-08
5.496702267e-08
4.202639879e-05
1.077164565e-07
5.622752521e-08
4.216134494e-05
6.940144517e-08
5.486438904e-08
4.223173558e-05
3.075326711e-08
5.480572308e-08
4.222954547e-05
6.986183677e-08
5.619465582e-08
4.213565397e-05
3.290342308e-08
5.479241855e-08
4.222700203e-05
-2.783107511e-09
5.47660303e-08
4.22248311e-05
3.608506179e-08
5.617836478e-08
4.213493636e-05
2.303303508e-13
5.479771741e-08
4.222565846e-05
-3.608388613e-08
5.47981892e-08
4.222565764e-05
2.784541713e-09
5.617966031e-08
4.213493335e-05
-3.290189429e-08
5.476820498e-08
4.22248278e-05
-6.986084872e-08
5.479526014e-08
4.222699746e-05
-3.075286117e-08
5.619826637e-08
4.213564867e-05
-6.940152154e-08
5.481008874e-08
4.222953972e-05
-1.077164375e-07
5.486955188e-08
4.223173016e-05
-7.505601057e-08
5.62332186e-08
4.21613402e-05
5.497319839e-08
4.20263951e-05
7.687114354e-08
1.973818853e-08
4.210408818e-05
1.064700285e-07
1.967400541e-08
4.225098903e-05
6.975693013e-08
1.978081931e-08
4.230919116e-05
3.251817332e-08
1.977437139e-08
4.230701872e-05
6.851730554e-08
1.966654025e-08
4.222511755e-05
3.303448584e-08
1.976976368e-08
4.230438154e-05
-1.211302367e-09
1.977008462e-08
4.230210845e-05
3.457424158e-08
1.966240131e-08
4.222450591e-05
7.480075433e-13
1.97690746e-08
4.230304468e-05
-3.45720573e-08
1.976948728e-08
4.230304394e-05
1.213700543e-09
1.966349548e-08
4.222450392e-05
-3.303208014e-08
1.977184629e-08
4.230210575e-05
-6.851544746e-08
1.97719083e-08
4.230437791e-05
-3.251698709e-08
1.966908518e-08
4.2225113e-05
-6.97562808e-08
1.977738403e-08
4.230701343e-05
-1.064695989e-07
1.978435862e-08
4.230918564e-05
-7.687032696e-08
1.967803618e-08
4.225098366e-05
1.974269439e-08
4.210408316e-05
7.685690007e-08
-1.43870813e-08
4.210211611e-05
1.064763627e-07
-1.582300971e-08
4.224901627e-05
6.975616118e-08
-1.420872715e-08
4.23072138e-05
3.25070102e-08
-1.415679469e-08
4.230503812e-05
6.852616247e-08
-1.580483534e-08
4.222314243e-05
3.303426747e-08
-1.415533108e-08
4.230240036e-05
-1.218445575e-09
-1.413081865e-08
4.230012788e-05
3.458431909e-08
-1.579476202e-08
4.222253158e-05
1.167093885e-12
-1.416150873e-08
4.2301064e-05
-3.458132139e-08
-1.416137232e-08
4.230106375e-05
1.221527419e-09
-1.57944013e-08
4.222253028e-05
-3.303137748e-08
-1.413026195e-08
4.230012592e-05
-6.852389966e-08
-1.415490045e-08
4.230239731e-05
-3.250547023e-08
-1.580442269e-08
4.222313822e-05
-6.975520892e-08
-1.415616464e-08
4.230503276e-05
-1.064757449e-07
-1.420759277e-08
4.230720773e-05
-7.685609126e-08
-1.582117281e-08
4.224900977e-05
-1.43841921e-08
4.210210997e-05
7.509286778e-08
2.348198247e-08
4.202176979e-05
1.076827305e-07
2.481905543e-08
4.215667297e-05
6.939627167e-08
2.332913249e-08
4.222712378e-05
3.07810776e-08
2.328346177e-08
4.22249327e-05
6.982475505e-08
2.481622535e-08
4.213098286e-05
3.290035988e-08
2.328463056e-08
4.22223857e-05
-2.757427142e-09
2.326252184e-08
4.222021995e-05
3.605235563e-08
2.480833493e-08
4.213025978e-05
1.286478295e-12
2.329317706e-08
4.222104344e-05
-3.604914105e-08
2.329310014e-08
4.222104334e-05
2.760614352e-09
2.480807208e-08
4.213025902e-05
-3.289760138e-08
2.326205776e-08
4.222021845e-05
-6.982262921e-08
2.328377317e-08
4.222238294e-05
-3.0779558e-08
2.481511042e-08
4.213097868e-05
-6.939519079e-08
2.328237316e-08
4.222492718e-05
-1.076818587e-07
2.332842359e-08
4.222711736e-05
-7.509171418e-08
2.481908054e-08
4.215666586e-05
2.348313832e-08
4.202176264e-05
7.686476453e-08
-9.547742857e-09
4.210045264e-05
1.064826355e-07
-9.575411576e-09
4.224735878e-05
6.975808299e-08
-9.559952079e-09
4.230556316e-05
3.250749607e-08
-9.550323202e-09
4.230338759e-05
6.852779664e-08
-9.556798647e-09
4.222148787e-05
3.303460916e-08
-9.542288326e-09
4.230074914e-05
-1.220977557e-09
-9.538890284e-09
4.22984778e-05
3.458552499e-08
-9.550907786e-09
4.222087383e-05
1.215685037e-12
-9.539183788e-09
4.229941254e-05
-3.458247632e-08
-9.539394661e-09
4.229941249e-05
1.22388288e-09
-9.551581909e-09
4.222087321e-05
-3.303228992e-08
-9.539965747e-09
4.22984761e-05
-6.852611981e-08
-9.543895578e-09
4.230074615e-05
-3.250627495e-08
-9.558736426e-09
4.222148336e-05
-6.975709932e-08
-9.552331036e-09
4.230338161e-05
-1.064816029e-07
-9.561626164e-09
4.230555612e-05
-7.686328262e-08
-9.576385007e-09
4.224735089e-05
-9.5476646e-09
4.210044457e-05
7.686451944e-08
-4.176527689e-08
4.209936017e-05
1.064906129e-07
-4.316803114e-08
4.224627403e-05
6.976107404e-08
-4.163440721e-08
4.230447608e-05
3.250765452e-08
-4.157175159e-08
4.230230022e-05
6.853404723e-08
-4.312343466e-08
4.222040138e-05
3.30369406e-08
-4.155429047e-08
4.229966101e-05
-1.225086767e-09
-4.152298481e-08
4.229739055e-05
3.458955798e-08
-4.31046395e-08
4.221978483e-05
9.746616598e-13
-4.155651135e-08
4.229832413e-05
-3.458701236e-08
-4.155678034e-08
4.229832399e-05
1.227478299e-09
-4.310541572e-08
4.221978398e-05
-3.303526499e-08
-4.152421011e-08
4.229738836e-05
-6.853295658e-08
-4.155601884e-08
4.229965754e-05
-3.250688669e-08
-4.312547356e-08
4.222039635e-05
-6.976028062e-08
-4.157384922e-08
4.23022937e-05
-1.06489497e-07
-4.163622815e-08
4.23044684e-05
-7.686277197e-08
-4.316920715e-08
4.224626543e-05
-4.176563539e-08
4.209935135e-05
7.503387589e-08
-4.422425528e-09
4.202342567e-05
1.077914741e-07
-3.357401294e-09
4.215842447e-05
6.941338298e-08
-4.58579258e-09
4.222878208e-05
3.071288604e-08
-4.620706001e-09
4.222658722e-05
6.992162826e-08
-3.337034954e-09
4.213274899e-05
3.290899378e-08
-4.605523768e-09
4.222404718e-05
-2.831444655e-09
-4.620553127e-09
4.222187859e-05
3.613888201e-08
-3.337704429e-09
4.213202751e-05
6.868680175e-13
-4.595144766e-09
4.22227051e-05
-3.613685593e-08
-4.595369512e-09
4.222270484e-05
2.833304662e-09
-3.338242246e-09
4.213202636e-05
-3.290790879e-08
-4.621599427e-09
4.222187588e-05
-6.992110448e-08
-4.607023796e-09
4.222404323e-05
-3.071252388e-08
-3.338697124e-09
4.213274351e-05
-6.941280717e-08
-4.622552103e-09
4.222658028e-05
-1.077902745e-07
-4.587467651e-09
4.222877396e-05
-7.50319993e-08
-3.358768637e-09
4.215841535e-05
-4.423227593e-09
4.20234164e-05
7.688055923e-08
-3.64191658e-08
4.209816905e-05
1.064435771e-07
-3.65445341e-08
4.224495414e-05
6.977415618e-08
-3.651380939e-08
4.230330207e-05
3.256282602e-08
-3.648659098e-08
4.230113743e-05
6.85002945e-08
-3.647790214e-08
4.221907769e-05
3.304631013e-08
-3.646264856e-08
4.229849506e-05
-1.179279766e-09
-3.645201575e-08
4.22962332e-05
3.454886301e-08
-3.646196641e-08
4.221845975e-05
4.79706704e-13
-3.645272631e-08
4.229715869e-05
-3.454719858e-08
-3.645298846e-08
4.229715837e-05
1.180683368e-09
-3.646256544e-08
4.22184583e-05
-3.304570646e-08
-3.645297851e-08
4.229622996e-05
-6.850025268e-08
-3.646397117e-08
4.229849069e-05
-3.256285221e-08
-3.647939967e-08
4.221907194e-05
-6.977381647e-08
-3.648805436e-08
4.230113039e-05
-1.064425007e-07
-3.65151571e-08
4.2303294e-05
-7.687858179e-08
-3.654556511e-08
4.224494528e-05
-3.641988498e-08
4.209815994e-05
7.690987958e-08
-8.411535295e-08
4.212842096e-05
1.065609982e-07
-8.560423335e-08
4.227533817e-05
6.980074842e-08
-8.401732027e-08
4.233361288e-05
3.252479336e-08
-8.395680807e-08
4.233145981e-05
6.857089798e-08
-8.555839311e-08
4.224954953e-05
3.305101787e-08
-8.393792292e-08
4.232884209e-05
-1.233207083e-09
-8.390539935e-08
4.23265788e-05
3.460850424e-08
-8.554334106e-08
4.224894272e-05
3.076192012e-13
-8.39403641e-08
4.232751072e-05
-3.460706813e-08
-8.394056416e-08
4.232751028e-05
1.234340714e-09
-8.554379765e-08
4.224894121e-05
-3.305072319e-08
-8.390610865e-08
4.232657525e-05
-6.857114465e-08
-8.393892448e-08
4.232883759e-05
-3.252498149e-08
-8.555947281e-08
4.224954383e-05
-6.980058669e-08
-8.395789718e-08
4.233145301e-05
-1.065598946e-07
-8.401819814e-08
4.233360529e-05
-7.69079399e-08
-8.560503368e-08
4.227532978e-05
-8.411542223e-08
4.212841262e-05
7.495259913e-08
-4.954659158e-08
4.203146826e-05
1.078697367e-07
-4.874068406e-08
4.216642816e-05
6.94569722e-08
-4.97995026e-08
4.223686317e-05
3.072087643e-08
-4.984179666e-08
4.2234677e-05
6.999583632e-08
-4.863258147e-08
4.214075695e-05
3.294209324e-08
-4.982243226e-08
4.223214365e-05
-2.856435348e-09
-4.982941508e-08
4.22299934e-05
3.618454082e-08
-4.863272928e-08
4.214002544e-05
2.253030542e-13
-4.980885451e-08
4.223080476e-05