/*--------------------------------*- C++ -*----------------------------------*\
  =========                 |
  \\      /  F ield         | OpenFOAM: The Open Source CFD Toolbox
   \\    /   O peration     | Website:  https://openfoam.org
    \\  /    A nd           | Version:  7
     \\/     M anipulation  |
\*---------------------------------------------------------------------------*/
FoamFile
{
    version     2.0;
    format      ascii;
    class       volScalarField;
    location    "2";
    object      rho;
}
// * * * * * * * * * * * * * * * * * * * * * * * * * * * * * * * * * * * * * //

dimensions      [1 -3 0 0 0 0 0];

internalField   nonuniform List<scalar> 
10692
(
1.17122969
1.171213947
1.171228796
1.171228326
1.171212528
1.171227519
1.171227275
1.171211763
1.171227039
1.171227039
1.171211763
1.171227275
1.171227519
1.171212527
1.171228324
1.171228793
1.171213943
1.171229686
1.171212988
1.171195532
1.171212089
1.171211623
1.171194111
1.171210814
1.171210571
1.171193347
1.171210334
1.171210334
1.171193348
1.171210571
1.171210814
1.17119411
1.171211621
1.171212087
1.171195529
1.171212983
1.171227047
1.171211299
1.171226154
1.171225685
1.171209882
1.171224879
1.171224635
1.171209118
1.1712244
1.1712244
1.171209118
1.171224635
1.171224879
1.171209881
1.171225683
1.171226152
1.171211296
1.171227044
1.17122578
1.171210036
1.171224888
1.171224419
1.17120862
1.171223615
1.171223371
1.171207857
1.171223136
1.171223136
1.171207857
1.171223371
1.171223614
1.171208619
1.171224418
1.171224886
1.171210034
1.171225778
1.171209216
1.171191759
1.17120832
1.171207855
1.171190342
1.171207048
1.171206806
1.17118958
1.17120657
1.17120657
1.17118958
1.171206806
1.171207048
1.171190341
1.171207854
1.171208318
1.171191757
1.171209214
1.171223484
1.171207737
1.171222593
1.171222125
1.171206324
1.171221323
1.17122108
1.171205563
1.171220845
1.171220845
1.171205563
1.171221079
1.171221322
1.171206323
1.171222125
1.171222593
1.171207736
1.171223483
1.171222583
1.171206839
1.171221693
1.171221225
1.171205426
1.171220423
1.17122018
1.171204666
1.171219945
1.171219945
1.171204666
1.171220179
1.171220422
1.171205426
1.171221224
1.171221692
1.171206838
1.171222582
1.171206441
1.171188984
1.171205546
1.171205082
1.17118757
1.171204277
1.171204036
1.17118681
1.1712038
1.1712038
1.171186809
1.171204035
1.171204276
1.171187569
1.171205081
1.171205545
1.171188983
1.17120644
1.171221117
1.171205371
1.171220227
1.171219759
1.171203959
1.171218958
1.171218715
1.171203199
1.17121848
1.17121848
1.171203199
1.171218714
1.171218957
1.171203959
1.171219759
1.171220226
1.171205371
1.171221116
1.171220532
1.171204787
1.171219642
1.171219174
1.171203375
1.171218373
1.17121813
1.171202615
1.171217895
1.171217895
1.171202615
1.171218129
1.171218372
1.171203375
1.171219174
1.171219641
1.171204787
1.171220531
1.171204655
1.171187198
1.17120376
1.171203296
1.171185783
1.171202491
1.17120225
1.171185023
1.171202014
1.171202014
1.171185023
1.171202249
1.17120249
1.171185783
1.171203296
1.17120376
1.171187198
1.171204655
1.171219545
1.171203801
1.171218655
1.171218188
1.171202388
1.171217386
1.171217143
1.171201628
1.171216908
1.171216908
1.171201628
1.171217142
1.171217385
1.171202388
1.171218188
1.171218655
1.171203801
1.171219545
1.171219133
1.171203387
1.171218242
1.171217774
1.171201974
1.171216972
1.171216729
1.171201214
1.171216494
1.171216494
1.171201214
1.171216729
1.171216972
1.171201974
1.171217775
1.171218242
1.171203387
1.171219133
1.17120342
1.171185963
1.171202525
1.17120206
1.171184548
1.171201255
1.171201013
1.171183787
1.171200778
1.171200778
1.171183787
1.171201013
1.171201255
1.171184548
1.171202061
1.171202525
1.171185964
1.171203421
1.171218453
1.171202709
1.171217562
1.171217094
1.171201295
1.171216291
1.171216048
1.171200534
1.171215813
1.171215814
1.171200534
1.171216049
1.171216292
1.171201296
1.171217095
1.171217563
1.17120271
1.171218454
1.171218125
1.171202379
1.171217234
1.171216766
1.171200965
1.171215963
1.17121572
1.171200204
1.171215485
1.171215486
1.171200205
1.171215721
1.171215964
1.171200966
1.171216767
1.171217236
1.171202381
1.171218127
1.171202499
1.171185043
1.171201603
1.171201138
1.171183626
1.171200332
1.17120009
1.171182865
1.171199855
1.171199856
1.171182866
1.171200092
1.171200334
1.171183628
1.17120114
1.171201606
1.171185045
1.171202502
1.171217291
1.171201547
1.171216399
1.17121593
1.171200133
1.171215127
1.171214884
1.171199371
1.171214649
1.17121465
1.171199373
1.171214885
1.171215129
1.171200134
1.171215932
1.171216401
1.17120155
1.171217293
1.161226214
1.161200438
1.161246648
1.16124533
1.161193631
1.16124368
1.161243101
1.161192087
1.1612428
1.161242801
1.161192088
1.161243102
1.16124368
1.161193629
1.161245326
1.161246642
1.16120043
1.161226205
1.161209868
1.1611773
1.161230348
1.161229057
1.161170532
1.1612274
1.16122684
1.161168954
1.16122652
1.16122652
1.161168954
1.16122684
1.1612274
1.161170531
1.161229054
1.161230343
1.161177293
1.161209861
1.161248469
1.16122278
1.16126889
1.161267573
1.161215967
1.161265925
1.161265341
1.161214435
1.161265048
1.161265048
1.161214435
1.161265341
1.161265925
1.161215966
1.16126757
1.161268886
1.161222774
1.161248463
1.161249639
1.161223958
1.161270063
1.16126875
1.161217154
1.161267103
1.161266517
1.161215626
1.161266226
1.161266226
1.161215626
1.161266517
1.161267103
1.161217153
1.161268748
1.16127006
1.161223954
1.161249634
1.161196195
1.161163666
1.161216673
1.161215377
1.161156875
1.161213724
1.161213162
1.161155303
1.161212846
1.161212846
1.161155303
1.161213162
1.161213723
1.161156874
1.161215375
1.16121667
1.161163663
1.161196192
1.161245859
1.161220198
1.161266282
1.161264967
1.161213399
1.161263327
1.161262742
1.161211872
1.16126245
1.16126245
1.161211871
1.161262741
1.161263325
1.161213397
1.161264966
1.161266281
1.161220196
1.161245857
1.161244294
1.16121864
1.161264717
1.161263402
1.161211839
1.161261762
1.161261177
1.161210314
1.161260887
1.161260887
1.161210313
1.161261176
1.16126176
1.161211837
1.161263401
1.161264715
1.161218638
1.161244292
1.161192851
1.16116028
1.161213333
1.16121204
1.161153492
1.161210389
1.161209829
1.161151924
1.161209514
1.161209513
1.161151923
1.161209828
1.161210388
1.161153491
1.161212038
1.161213332
1.161160279
1.161192849
1.161242651
1.161216995
1.161263077
1.161261762
1.161210196
1.161260123
1.161259539
1.161208672
1.161259248
1.161259248
1.161208671
1.161259538
1.161260122
1.161210195
1.161261761
1.161263076
1.161216994
1.161242651
1.161241924
1.161216271
1.161262349
1.161261033
1.161209471
1.161259394
1.16125881
1.161207946
1.161258519
1.161258519
1.161207946
1.161258809
1.161259393
1.161209471
1.161261032
1.161262348
1.16121627
1.161241923
1.16119057
1.161157991
1.161211056
1.161209762
1.161151203
1.161208111
1.161207551
1.161149634
1.161207235
1.161207235
1.161149634
1.161207551
1.161208111
1.161151202
1.161209762
1.161211056
1.161157991
1.16119057
1.161240962
1.161215309
1.161261389
1.161260073
1.161208509
1.161258432
1.161257849
1.161206983
1.161257557
1.161257557
1.161206983
1.161257849
1.161258432
1.161208509
1.161260073
1.161261388
1.161215309
1.161240963
1.161240605
1.16121495
1.161261032
1.161259715
1.161208149
1.161258075
1.161257491
1.161206622
1.161257199
1.161257199
1.161206622
1.161257491
1.161258075
1.161208149
1.161259715
1.161261032
1.16121495
1.161240605
1.161190013
1.161157437
1.161210497
1.161209203
1.161150648
1.161207551
1.161206991
1.161149078
1.161206675
1.161206675
1.161149078
1.161206992
1.161207552
1.161150649
1.161209204
1.161210498
1.161157438
1.161190014
1.161240141
1.161214489
1.161260564
1.161259247
1.161207685
1.161257605
1.161257021
1.161206158
1.16125673
1.16125673
1.161206159
1.161257022
1.161257606
1.161207686
1.161259249
1.161260566
1.161214491
1.161240144
1.161243334
1.161217667
1.161263756
1.161262442
1.161210875
1.161260802
1.161260218
1.161209348
1.161259927
1.161259927
1.161209349
1.16126022
1.161260804
1.161210877
1.161262445
1.161263759
1.161217671
1.161243338
1.161190895
1.161158334
1.161211379
1.161210085
1.161151544
1.161208432
1.161207873
1.161149972
1.161207556
1.161207557
1.161149974
1.161207876
1.161208435
1.161151547
1.161210088
1.161211383
1.161158339
1.1611909
1.161225384
1.16119968
1.161245795
1.161244481
1.161192885
1.161242839
1.161242256
1.161191358
1.161241965
1.161241966
1.16119136
1.161242259
1.161242842
1.161192889
1.161244485
1.1612458
1.161199685
1.161225389
1.151678993
1.151656387
1.151744329
1.151742339
1.151642897
1.151739155
1.151738043
1.151640383
1.15173764
1.15173764
1.151640384
1.151738044
1.151739154
1.151642894
1.151742334
1.15174432
1.151656377
1.151678981
1.151682343
1.151647086
1.151747618
1.151745694
1.151633688
1.151742501
1.151741447
1.15163111
1.151740995
1.151740996
1.151631112
1.151741448
1.1517425
1.151633686
1.151745689
1.15174761
1.151647077
1.151682333
1.151752651
1.151730163
1.151817631
1.151815644
1.151716679
1.151812467
1.151811341
1.15171419
1.151810957
1.151810957
1.151714191
1.151811341
1.151812466
1.151716677
1.15181564
1.151817625
1.151730155
1.151752643
1.151759875
1.15173743
1.151824808
1.15182283
1.151723975
1.151819656
1.151818524
1.151721493
1.151818145
1.151818145
1.151721494
1.151818524
1.151819655
1.151723974
1.151822827
1.151824803
1.151737424
1.15175987
1.151657091
1.151621906
1.151722402
1.151720467
1.15160843
1.151717274
1.151716214
1.151605865
1.151715771
1.151715771
1.151605865
1.151716214
1.151717273
1.151608429
1.151720464
1.151722398
1.151621902
1.151657087
1.151753577
1.15173115
1.151818514
1.15181653
1.151717696
1.151813366
1.151812237
1.151715216
1.151811857
1.151811857
1.151715215
1.151812235
1.151813364
1.151717694
1.151816528
1.151818511
1.151731147
1.151753574
1.151750931
1.15172854
1.151815874
1.15181389
1.15171508
1.151810725
1.151809597
1.151712605
1.151809219
1.151809218
1.151712603
1.151809595
1.151810723
1.151715078
1.151813888
1.151815872
1.151728538
1.151750929
1.151652754
1.151617507
1.151718072
1.151716138
1.151604036
1.151712949
1.151711892
1.151601478
1.15171145
1.151711449
1.151601476
1.15171189
1.151712947
1.151604034
1.151716136
1.15171807
1.151617505
1.151652753
1.151748571
1.151726171
1.151813524
1.151811537
1.151712714
1.151808375
1.151807249
1.151710238
1.15180687
1.151806869
1.151710236
1.151807247
1.151808373
1.151712713
1.151811536
1.151813522
1.151726169
1.15174857
1.15174756
1.151725179
1.151812513
1.151810526
1.151711721
1.151807363
1.151806237
1.151709245
1.151805858
1.151805857
1.151709244
1.151806235
1.151807362
1.15171172
1.151810525
1.151812512
1.151725179
1.151747559
1.151649435
1.151614167
1.151714769
1.151712834
1.151600694
1.151709644
1.151708588
1.151598134
1.151708145
1.151708145
1.151598133
1.151708587
1.151709643
1.151600693
1.151712834
1.151714768
1.151614167
1.151649435
1.151746414
1.151724032
1.151811374
1.151809387
1.151710573
1.151806222
1.151805095
1.151708094
1.151804716
1.151804715
1.151708094
1.151805095
1.151806222
1.151710573
1.151809386
1.151811374
1.151724032
1.151746415
1.151745954
1.151723567
1.151810917
1.151808929
1.151710106
1.151805764
1.151804637
1.151707625
1.151804257
1.151804257
1.151707625
1.151804637
1.151805764
1.151710106
1.151808929
1.151810917
1.151723567
1.151745955
1.151649821
1.151614576
1.151715148
1.151713212
1.151601105
1.151710021
1.151708964
1.151598542
1.151708521
1.151708521
1.151598543
1.151708965
1.151710022
1.151601106
1.151713213
1.151715149
1.151614577
1.151649823
1.151745877
1.151723481
1.151810838
1.151808851
1.151710014
1.151805682
1.151804557
1.151707533
1.151804176
1.151804176
1.151707534
1.151804558
1.151805684
1.151710016
1.151808853
1.15181084
1.151723484
1.151745881
1.151755745
1.151733307
1.151820655
1.151818674
1.151719879
1.151815514
1.15181439
1.1517174
1.151814009
1.151814009
1.151717402
1.151814392
1.151815516
1.151719882
1.151818678
1.151820659
1.151733312
1.151755751
1.151653222
1.151617993
1.151718534
1.1517166
1.151604522
1.151713409
1.151712357
1.151601955
1.15171191
1.151711911
1.151601958
1.15171236
1.151713412
1.151604526
1.151716604
1.151718539
1.151617999
1.151653229
1.151700484
1.151677998
1.151765585
1.151763606
1.151664534
1.151760438
1.151759313
1.151662055
1.151758934
1.151758934
1.151662058
1.151759317
1.151760443
1.151664539
1.151763611
1.151765592
1.151678005
1.151700492
1.142672061
1.142665419
1.142805212
1.142803376
1.142645264
1.142798158
1.142796508
1.142641439
1.142795767
1.142795767
1.142641441
1.142796509
1.142798157
1.14264526
1.142803369
1.142805202
1.142665407
1.142672048
1.142713413
1.14268735
1.142846009
1.142844307
1.142667341
1.142839057
1.142837538
1.142663413
1.142836704
1.142836704
1.142663415
1.142837539
1.142839056
1.142667338
1.142844301
1.142846
1.142687338
1.142713401
1.142823294
1.142816588
1.142955073
1.142953221
1.142796473
1.142948024
1.142946355
1.14279268
1.14294564
1.14294564
1.142792681
1.142946356
1.142948023
1.14279647
1.142953216
1.142955065
1.142816579
1.142823285
1.142840968
1.142834347
1.142972524
1.142970683
1.142814299
1.142965498
1.142963818
1.142810517
1.142963111
1.14296311
1.142810517
1.142963818
1.142965497
1.142814297
1.142970679
1.142972518
1.142834341
1.142840962
1.142677109
1.142651144
1.14280981
1.142808092
1.142630991
1.142802837
1.142801307
1.142627078
1.142800482
1.142800481
1.142627078
1.142801306
1.142802835
1.142630989
1.142808089
1.142809806
1.14265114
1.142677105
1.142831152
1.142824515
1.142962736
1.142960886
1.142804455
1.142955713
1.142954039
1.142800677
1.14295333
1.142953328
1.142800675
1.142954037
1.142955711
1.142804453
1.142960883
1.142962732
1.142824511
1.14283115
1.142827077
1.142820549
1.142958682
1.14295683
1.142800478
1.142951657
1.142949983
1.142796707
1.142949277
1.142949276
1.142796705
1.14294998
1.142951654
1.142800476
1.142956827
1.142958679
1.142820547
1.142827075
1.142671465
1.142645406
1.142804174
1.142802456
1.14262526
1.142797208
1.142795682
1.142621357
1.142794859
1.142794857
1.142621355
1.142795679
1.142797205
1.142625258
1.142802453
1.142804172
1.142645403
1.142671464
1.142823299
1.142816733
1.142954935
1.14295308
1.142796666
1.14294791
1.142946239
1.142792892
1.142945531
1.14294553
1.142792891
1.142946237
1.142947908
1.142796664
1.142953078
1.142954933
1.142816731
1.142823298
1.142821975
1.142815471
1.142953618
1.14295176
1.142795401
1.14294659
1.142944918
1.142791627
1.14294421
1.142944209
1.142791626
1.142944916
1.142946588
1.142795399
1.142951759
1.142953617
1.14281547
1.142821975
1.142666362
1.142640274
1.142799118
1.142797399
1.142620124
1.142792148
1.142790623
1.142616218
1.142789799
1.142789799
1.142616218
1.142790622
1.142792146
1.142620123
1.142797398
1.142799117
1.142640274
1.142666363
1.142820384
1.142813874
1.142952047
1.142950188
1.142793802
1.142945015
1.142943343
1.142790025
1.142942635
1.142942634
1.142790025
1.142943343
1.142945015
1.142793801
1.142950188
1.142952046
1.142813874
1.142820385
1.142819487
1.142812959
1.142951164
1.142949305
1.142792883
1.14294413
1.142942459
1.142789103
1.142941749
1.142941748
1.142789103
1.142942459
1.142944129
1.142792883
1.142949305
1.142951164
1.142812959
1.142819488
1.142668041
1.142641988
1.142800783
1.142799062
1.142621846
1.142793811
1.142792286
1.142617937
1.142791461
1.142791461
1.142617938
1.142792286
1.142793812
1.142621847
1.142799062
1.142800784
1.142641989
1.142668043
1.142819737
1.142813216
1.142951416
1.142949559
1.142793128
1.142944377
1.142942708
1.142789346
1.142941996
1.142941996
1.142789347
1.142942709
1.142944379
1.142793129
1.142949561
1.142951418
1.142813219
1.142819741
1.142839081
1.142832431
1.142970575
1.142968729
1.142812424
1.142963568
1.142961902
1.14280865
1.142961192
1.142961192
1.142808652
1.142961905
1.142963571
1.142812428
1.142968733
1.14297058
1.142832436
1.142839088
1.142674151
1.142648117
1.142806845
1.142805126
1.14262797
1.142799874
1.142798357
1.142624056
1.142797528
1.142797528
1.142624059
1.142798361
1.142799877
1.142627974
1.142805132
1.142806851
1.142648124
1.142674161
1.142727267
1.142720714
1.142859598
1.142857768
1.142700614
1.142852587
1.142850915
1.142696836
1.142850205
1.142850206
1.142696839
1.142850919
1.142852591
1.14270062
1.142857774
1.142859605
1.142720723
1.142727278
1.134229798
1.134247551
1.134451366
1.134450743
1.134221537
1.134443001
1.134440872
1.134216172
1.134439592
1.134439591
1.134216174
1.134440873
1.134443
1.134221533
1.134450736
1.134451355
1.134247538
1.134229786
1.134322197
1.134311728
1.134542202
1.134541805
1.134285894
1.134533983
1.13453207
1.13428039
1.134530663
1.134530662
1.134280392
1.134532071
1.134533982
1.134285891
1.134541798
1.134542192
1.134311716
1.134322186
1.134482329
1.13449954
1.134700535
1.134699833
1.134473594
1.134692142
1.134689992
1.134468258
1.134688742
1.134688741
1.13446826
1.134689992
1.134692141
1.134473591
1.134699828
1.134700527
1.134499531
1.134482321
1.134514652
1.134532003
1.13473227
1.134731574
1.134506174
1.134723911
1.134721744
1.134500854
1.134720506
1.134720505
1.134500854
1.134721743
1.13472391
1.134506171
1.13473157
1.134732264
1.134531997
1.134514647
1.134276625
1.134266237
1.134496795
1.134496378
1.134240182
1.134488545
1.13448662
1.134234691
1.134485216
1.134485215
1.13423469
1.134486619
1.134488543
1.13424018
1.134496375
1.134496791
1.134266233
1.134276622
1.134500399
1.134517656
1.134718095
1.13471739
1.134491802
1.134709742
1.134707583
1.134486489
1.134706343
1.134706341
1.134486488
1.13470758
1.134709739
1.134491799
1.134717387
1.134718091
1.134517653
1.134500397
1.134494625
1.134512116
1.134712371
1.134711661
1.134486241
1.134704013
1.134701854
1.13448094
1.134700619
1.134700616
1.134480937
1.13470185
1.134704009
1.134486238
1.134711658
1.134712368
1.134512113
1.134494624
1.134269396
1.13425886
1.134489572
1.134489154
1.134232821
1.134481333
1.134479413
1.134227343
1.134478013
1.134478011
1.134227341
1.13447941
1.13448133
1.134232818
1.134489151
1.134489569
1.134258858
1.134269395
1.134488697
1.134506103
1.134706522
1.134705809
1.134480232
1.134698164
1.134696009
1.134474928
1.134694772
1.13469477
1.134474926
1.134696006
1.134698161
1.13448023
1.134705806
1.13470652
1.134506101
1.134488697
1.134487125
1.134504654
1.134704963
1.134704244
1.134478779
1.134696599
1.134694443
1.134473474
1.134693206
1.134693205
1.134473473
1.134694441
1.134696597
1.134478777
1.134704242
1.134704961
1.134504653
1.134487126
1.134261847
1.134251277
1.134482129
1.134481711
1.134225227
1.134473885
1.134471966
1.134219748
1.134470567
1.134470566
1.134219748
1.134471966
1.134473883
1.134225226
1.13448171
1.134482128
1.134251277
1.134261848
1.134484878
1.134502398
1.13470276
1.134702042
1.134476519
1.134694392
1.134692236
1.13447121
1.134690998
1.134690997
1.13447121
1.134692236
1.134694391
1.134476518
1.13470204
1.134702759
1.134502398
1.134484879
1.134483086
1.134500576
1.13470101
1.134700292
1.134474689
1.134692638
1.134690483
1.134469375
1.134689243
1.134689242
1.134469376
1.134690483
1.134692637
1.134474688
1.134700291
1.134701009
1.134500576
1.134483088
1.134265131
1.134254612
1.134485387
1.134484967
1.13422858
1.134477143
1.134475224
1.134223097
1.134473823
1.134473823
1.134223098
1.134475224
1.134477143
1.13422858
1.134484967
1.134485387
1.134254613
1.134265134
1.134483552
1.134501081
1.134701494
1.134700779
1.134475173
1.134693113
1.13469096
1.134469855
1.134689716
1.134689716
1.134469857
1.134690962
1.134693114
1.134475174
1.13470078
1.134701496
1.134501084
1.134483558
1.134514521
1.134531761
1.134732031
1.13473133
1.134505989
1.134723701
1.134721556
1.134500687
1.134720316
1.134720316
1.134500689
1.134721558
1.134723703
1.134505992
1.134731334
1.134732036
1.134531768
1.13451453
1.134274174
1.134263706
1.13449433
1.134493911
1.134237659
1.134486081
1.134484172
1.134232174
1.134482769
1.134482769
1.134232177
1.134484175
1.134486085
1.134237663
1.134493916
1.134494337
1.134263715
1.134274186
1.134329162
1.134346831
1.134548789
1.134548146
1.134320899
1.134540475
1.134538319
1.134315585
1.134537073
1.134537073
1.134315588
1.134538323
1.134540479
1.134320904
1.134548152
1.134548798
1.134346841
1.134329175
1.126388886
1.126440428
1.126715487
1.126717097
1.126409836
1.126706344
1.126703872
1.126402555
1.126701747
1.126701746
1.126402558
1.126703874
1.126706344
1.126409833
1.12671709
1.126715477
1.126440417
1.126388876
1.126544738
1.126558801
1.126868151
1.12687009
1.126528388
1.12685919
1.126857046
1.126520911
1.12685475
1.126854749
1.126520913
1.126857047
1.12685919
1.126528385
1.126870084
1.126868142
1.12655879
1.126544728
1.126761891
1.126812013
1.127082
1.127083404
1.12678148
1.127072749
1.127070247
1.126774229
1.127068169
1.127068168
1.126774231
1.127070248
1.127072748
1.126781477
1.127083399
1.127081992
1.126812005
1.126761884
1.126812229
1.126862536
1.127131159
1.127132551
1.126832175
1.127121951
1.127119423
1.126824947
1.127117365
1.127117364
1.126824948
1.127119422
1.127121949
1.126832173
1.127132547
1.127131154
1.12686253
1.126812225
1.126492458
1.126506543
1.126816039
1.126817956
1.126475827
1.126807039
1.126804881
1.126468365
1.126802585
1.126802583
1.126468364
1.126804879
1.126807037
1.126475825
1.126817952
1.126816034
1.126506538
1.126492456
1.126792643
1.12684274
1.127111738
1.127113124
1.126812341
1.127102542
1.127100027
1.126805126
1.127097967
1.127097965
1.126805125
1.127100025
1.127102539
1.126812338
1.127113121
1.127111735
1.126842737
1.126792642
1.12678486
1.126835366
1.127104052
1.127105428
1.126804936
1.127094847
1.12709233
1.126797737
1.127090277
1.127090274
1.126797734
1.127092326
1.127094843
1.126804933
1.127105425
1.127104049
1.126835363
1.12678486
1.126483336
1.1264972
1.126806919
1.126808835
1.126466513
1.126797941
1.12679579
1.126459072
1.126793499
1.126793496
1.12645907
1.126795786
1.126797936
1.12646651
1.126808832
1.126806916
1.126497198
1.126483336
1.126776165
1.126826524
1.127095514
1.12709689
1.126796098
1.127086312
1.127083802
1.126788897
1.127081746
1.127081743
1.126788895
1.127083799
1.127086308
1.126796095
1.127096887
1.127095511
1.126826522
1.126776166
1.126774514
1.12682508
1.127093881
1.127095248
1.126794649
1.12708467
1.127082158
1.126787448
1.127080103
1.127080101
1.126787447
1.127082156
1.127084667
1.126794647
1.127095246
1.127093879
1.126825079
1.126774516
1.126472761
1.126486584
1.126796543
1.126798461
1.126455879
1.126787557
1.126785409
1.126448436
1.126783119
1.126783117
1.126448437
1.126785408
1.126787555
1.126455878
1.126798459
1.126796541
1.126486583
1.126472763
1.126771473
1.126822027
1.127090921
1.12709229
1.12679159
1.127081705
1.127079193
1.126784382
1.127077136
1.127077134
1.126784383
1.127079193
1.127081704
1.126791589
1.127092288
1.127090919
1.126822026
1.126771475
1.126768238
1.126818746
1.127087781
1.127089152
1.126788293
1.127078559
1.127076049
1.12678108
1.127073988
1.127073987
1.12678108
1.127076049
1.127078558
1.126788292
1.127089151
1.12708778
1.126818746
1.126768241
1.126478035
1.126491927
1.126801768
1.126803685
1.126461252
1.126792786
1.126790636
1.126453805
1.126788346
1.126788344
1.126453805
1.126790636
1.126792785
1.126461251
1.126803685
1.126801768
1.126491927
1.126478039
1.126769035
1.126819643
1.127088618
1.127089994
1.126789159
1.127079382
1.127076874
1.126781938
1.127074808
1.127074807
1.126781939
1.127076875
1.127079383
1.12678916
1.127089995
1.12708862
1.126819646
1.126769042
1.126813
1.126863078
1.127131787
1.127133177
1.126832788
1.127122623
1.127120127
1.126825592
1.127118069
1.127118068
1.126825594
1.127120129
1.127122625
1.126832791
1.12713318
1.127131792
1.126863085
1.12681301
1.126490017
1.126504012
1.126813584
1.126815497
1.126473305
1.126804589
1.126802449
1.126465858
1.126800158
1.126800157
1.126465861
1.126802452
1.126804592
1.12647331
1.126815503
1.126813591
1.126504021
1.126490031
1.126540685
1.126591772
1.126863608
1.126865135
1.126561272
1.126854504
1.126851993
1.12655405
1.126849916
1.126849915
1.126554053
1.126851996
1.126854508
1.126561277
1.126865141
1.126863617
1.126591784
1.1265407
1.11913271
1.119225345
1.11957738
1.119582084
1.119191352
1.119567725
1.119565042
1.119181676
1.119561722
1.119561721
1.11918168
1.119565045
1.119567725
1.11919135
1.119582079
1.119577371
1.119225335
1.119132703
1.119361285
1.11940686
1.119800493
1.119805637
1.11937299
1.119791038
1.119788822
1.119363052
1.119785274
1.119785273
1.119363055
1.119788824
1.119791038
1.119372988
1.119805632
1.119800485
1.119406851
1.119361278
1.119641262
1.119731172
1.120075086
1.120079381
1.119697173
1.120065193
1.120062453
1.119687546
1.120059225
1.120059223
1.119687548
1.120062455
1.120065192
1.119697171
1.120079377
1.120075079
1.119731164
1.119641258
1.119712157
1.119802273
1.120143969
1.120148215
1.119768503
1.120134122
1.120131341
1.119758913
1.12012815
1.120128148
1.119758914
1.120131341
1.120134121
1.119768502
1.120148212
1.120143964
1.119802267
1.119712155
1.119304549
1.119350017
1.119743841
1.119748961
1.119315761
1.119734343
1.11973211
1.119305848
1.119728562
1.11972856
1.119305848
1.119732109
1.119734341
1.119315759
1.119748959
1.119743837
1.119350014
1.119304549
1.119686219
1.119775964
1.120118331
1.120122584
1.119742147
1.120108512
1.120105752
1.119732578
1.120102554
1.120102551
1.119732577
1.12010575
1.120108509
1.119742145
1.120122582
1.120118328
1.119775962
1.119686219
1.119675991
1.119766374
1.120108272
1.120112509
1.119732513
1.120098438
1.120095675
1.119722965
1.120092486
1.120092483
1.119722962
1.120095672
1.120098434
1.11973251
1.120112506
1.120108269
1.119766372
1.119675992
1.119293204
1.119338369
1.119732493
1.119737614
1.119304163
1.119723032
1.11972081
1.119294282
1.119717271
1.119717268
1.11929428
1.119720806
1.119723028
1.11930416
1.119737612
1.11973249
1.119338367
1.119293205
1.119664046
1.119754199
1.120096596
1.12010084
1.119720345
1.120086771
1.120084019
1.119710795
1.120080826
1.120080823
1.119710793
1.120084016
1.120086768
1.119720342
1.120100837
1.120096593
1.119754198
1.119664048
1.119662567
1.119753028
1.12009513
1.12009936
1.119719169
1.120085293
1.120082537
1.119709619
1.120079346
1.120079343
1.119709618
1.120082536
1.120085291
1.119719167
1.120099358
1.120095128
1.119753027
1.11966257
1.119279168
1.119324297
1.119718781
1.11972391
1.119290066
1.119709313
1.119707096
1.119280182
1.119703556
1.119703554
1.119280183
1.119707096
1.119709311
1.119290064
1.119723908
1.11971878
1.119324297
1.119279172
1.119658722
1.119749169
1.120091414
1.120095648
1.119715301
1.120081571
1.120078815
1.119705742
1.120075621
1.120075619
1.119705743
1.120078815
1.12008157
1.119715299
1.120095646
1.120091412
1.119749168
1.119658725
1.119653503
1.119743891
1.120086379
1.12009062
1.119709998
1.120076527
1.120073774
1.11970043
1.120070574
1.120070572
1.119700431
1.120073774
1.120076526
1.119709997
1.120090618
1.120086376
1.11974389
1.119653507
1.119286825
1.119332025
1.119726353
1.11973148
1.119297834
1.119716889
1.11971467
1.119287944
1.11971113
1.119711128
1.119287945
1.11971467
1.119716888
1.119297833
1.119731479
1.119726352
1.119332025
1.119286829
1.119654926
1.119745512
1.120087865
1.12009211
1.119711573
1.120077991
1.12007524
1.119701994
1.120072031
1.120072029
1.119701995
1.12007524
1.120077991
1.119711574
1.12009211
1.120087866
1.119745515
1.119654933
1.119712668
1.119802397
1.120144336
1.120148593
1.11976871
1.120134556
1.120131823
1.119759167
1.120128628
1.120128626
1.119759169
1.120131825
1.120134558
1.119768713
1.120148596
1.12014434
1.119802403
1.119712679
1.119301754
1.119347123
1.119741034
1.119746151
1.119312882
1.119731547
1.119729338
1.119302991
1.119725797
1.119725796
1.119302993
1.119729341
1.11973155
1.119312886
1.119746157
1.119741041
1.119347132
1.119301769
1.119343162
1.119434771
1.119781771
1.119786288
1.119400849
1.119772122
1.119769371
1.119391257
1.119766134
1.119766132
1.11939126
1.119769374
1.119772126
1.119400855
1.119786295
1.119781779
1.119434783
1.119343178
1.112425374
1.112562772
1.112997986
1.113006431
1.112526252
1.112987783
1.112984942
1.11251361
1.112980135
1.112980133
1.112513613
1.112984945
1.112987783
1.112526251
1.113006427
1.112997978
1.112562763
1.112425368
1.112731468
1.112811146
1.113295762
1.113304761
1.112774629
1.113285772
1.11328355
1.112761646
1.11327846
1.113278458
1.112761649
1.113283552
1.113285772
1.112774628
1.113304757
1.113295755
1.112811138
1.112731463
1.11308067
1.113213654
1.113636853
1.113644606
1.113177
1.113626241
1.113623305
1.113164441
1.113618651
1.113618649
1.113164443
1.113623307
1.113626241
1.113176999
1.113644603
1.113636847
1.113213647
1.113080667
1.113173892
1.11330708
1.11372699
1.11373464
1.113270712
1.113716424
1.113713428
1.113258208
1.113708834
1.113708832
1.113258209
1.113713428
1.113716423
1.113270712
1.113734638
1.113726985
1.113307076
1.113173891
1.112671881
1.112751253
1.113236088
1.113245058
1.112714263
1.113226057
1.113223816
1.112701326
1.113218726
1.113218723
1.112701326
1.113223815
1.113226055
1.112714262
1.113245056
1.113236085
1.11275125
1.112671882
1.113140557
1.1132732
1.113694152
1.11370183
1.113236781
1.113683639
1.113680673
1.11322431
1.11367607
1.113676067
1.113224309
1.11368067
1.113683636
1.11323678
1.113701828
1.113694149
1.113273198
1.113140559
1.11312731
1.113260865
1.113681184
1.113688839
1.113224385
1.11367065
1.113667679
1.113211941
1.113663087
1.113663083
1.113211939
1.113667675
1.113670646
1.113224383
1.113688836
1.113681181
1.113260863
1.113127312
1.112657816
1.112736783
1.113222019
1.113230994
1.112699877
1.113212047
1.113209822
1.112686985
1.113204746
1.113204741
1.112686982
1.113209818
1.113212042
1.112699874
1.113230991
1.113222016
1.112736781
1.112657818
1.113111791
1.113245022
1.113666074
1.113673748
1.113208555
1.11365556
1.113652604
1.113196111
1.113648006
1.113648002
1.113196109
1.113652601
1.113655556
1.113208553
1.113673745
1.113666071
1.11324502
1.113111794
1.113110762
1.113244407
1.113665041
1.113672695
1.113207937
1.11365451
1.113651549
1.113195493
1.113646954
1.113646951
1.113195492
1.113651548
1.113654507
1.113207935
1.113672692
1.113665039
1.113244407
1.113110767
1.112640098
1.112719045
1.113204779
1.113213769
1.112682104
1.1131948
1.113192583
1.112669208
1.113187504
1.113187501
1.112669209
1.113192583
1.113194798
1.112682102
1.113213767
1.113204778
1.112719045
1.112640103