/*--------------------------------*- C++ -*----------------------------------*\
  =========                 |
  \\      /  F ield         | OpenFOAM: The Open Source CFD Toolbox
   \\    /   O peration     | Website:  https://openfoam.org
    \\  /    A nd           | Version:  7
     \\/     M anipulation  |
\*---------------------------------------------------------------------------*/
FoamFile
{
    version     2.0;
    format      ascii;
    class       volScalarField;
    location    "2";
    object      rhoavg;
}
// * * * * * * * * * * * * * * * * * * * * * * * * * * * * * * * * * * * * * //

dimensions      [1 -3 0 0 0 0 0];

internalField   nonuniform List<scalar> 
10692
(
1.626303259e-19
0
-3.523657061e-19
2.168404345e-19
-1.734723476e-18
-5.149960319e-19
6.505213035e-19
0
-1.471708863e-18
-6.171916453e-18
-1.301042607e-18
-4.065758147e-19
5.421010862e-20
-1.301042607e-18
5.854691731e-18
-2.683400377e-18
0
-5.231275482e-18
0
0
-1.734723476e-18
-1.734723476e-18
-6.938893904e-18
-8.239936511e-18
7.372574773e-18
-6.938893904e-18
-1.789391721e-17
1.615919374e-17
6.938893904e-18
-8.67361738e-19
-2.992397996e-17
0
0
1.301042607e-18
-6.938893904e-18
2.168404345e-18
-4.33680869e-19
-5.637851297e-18
5.692061406e-19
5.149960319e-19
-5.204170428e-18
1.00288701e-18
-5.421010862e-19
-1.301042607e-18
-1.370238394e-19
-4.958726371e-18
-1.734723476e-18
-3.198396409e-18
2.439454888e-19
-6.938893904e-18
3.252606517e-18
-1.273937553e-18
-2.602085214e-18
4.960224939e-18
1.084202172e-19
-4.33680869e-19
2.466559942e-18
1.517883041e-18
1.734723476e-18
2.168404345e-19
1.544988096e-18
2.168404345e-18
3.252606517e-19
-1.76182853e-18
-4.33680869e-19
-1.246832498e-18
1.517883041e-18
9.107298249e-18
-5.149960319e-19
-5.502326025e-18
8.67361738e-19
2.629190268e-18
8.67361738e-19
0
-6.505213035e-18
-9.974659987e-18
0
4.33680869e-19
1.734723476e-18
0
8.67361738e-19
-2.168404345e-18
-6.938893904e-18
-8.67361738e-19
4.33680869e-19
-6.938893904e-18
4.857225733e-17
8.67361738e-19
6.938893904e-18
3.295974604e-17
1.599198204e-18
8.239936511e-18
-1.084202172e-18
3.794707604e-19
-2.602085214e-18
2.710505431e-20
1.355252716e-18
1.301042607e-18
2.168404345e-18
-2.95445092e-18
-2.602085214e-18
-3.442341898e-18
-7.318364664e-19
8.67361738e-19
6.857578741e-18
-8.944667923e-19
2.168404345e-18
8.131516294e-20
5.421010862e-20
1.691355389e-17
2.168404345e-19
-1.111307227e-18
2.168404345e-18
-9.215718466e-19
1.436567879e-18
8.67361738e-19
-1.599198204e-18
-1.707618422e-18
0
6.776263578e-19
-2.710505431e-18
8.67361738e-19
2.005774019e-18
1.57209315e-18
4.33680869e-19
2.791820594e-18
-8.67361738e-19
0
2.602085214e-18
-4.33680869e-19
0
8.67361738e-19
6.938893904e-18
6.938893904e-18
-5.466818255e-19
1.702655485e-17
-6.938893904e-18
0
-3.07913417e-17
-6.938893904e-18
-4.33680869e-19
1.604619215e-17
-6.938893904e-18
1.734723476e-18
-1.281973589e-18
-1.09336394e-18
-2.072515566e-18
-4.607859233e-19
0
7.368756579e-19
2.310877689e-18
5.466817101e-19
4.208775535e-18
-3.347818008e-18
-1.789391653e-17
-9.58755392e-19
-2.909775308e-18
1.647987302e-17
-2.508939858e-19
-1.985617584e-18
-1.474514955e-17
5.221740968e-18
-6.144811293e-18
1.670587522e-17
-4.107436817e-18
-5.421010862e-18
-3.165870344e-17
1.567053959e-18
2.015698198e-20
-1.832759734e-17
2.956493444e-18
1.030428233e-17
-1.636687212e-17
1.175595826e-18
1.992698766e-19
4.683753385e-17
1.226675941e-18
1.030686926e-17
1.431146868e-17
9.084967685e-20
-2.168404345e-18
0
-8.67361738e-19
-3.035766083e-18
-6.938893904e-18
-8.67361738e-19
-1.301042607e-18
-6.938893904e-18
-1.734723476e-17
1.561251128e-17
0
-8.67361738e-19
-1.778091563e-17
0
-1.734723476e-18
3.122502257e-17
0
-3.295974604e-17
8.67361738e-19
4.33680869e-19
-1.138412281e-18
1.95156391e-18
-4.33680869e-19
2.981555974e-18
-2.303929617e-18
-8.67361738e-19
1.822986393e-18
-1.6957808e-19
4.33680869e-19
2.57498016e-18
-1.19262239e-18
-2.168404345e-18
1.978668965e-18
-4.689174396e-18
-1.734723476e-18
1.111307227e-17
-2.710505431e-20
3.295974604e-17
-3.33392168e-18
-1.870248748e-18
-1.301042607e-18
-3.848917712e-18
3.1441863e-18
0
-4.462255258e-18
1.796566762e-19
-1.301042607e-18
1.490777987e-18
1.599198204e-18
0
-5.963111949e-19
-2.818925648e-18
-1.82145965e-17
-1.301042607e-18
-1.301042607e-18
0
5.204170428e-18
-1.040834086e-17
-6.938893904e-18
-4.33680869e-19
1.734723476e-18
0
0
4.857225733e-17
-6.938893904e-18
4.33680869e-19
1.604619215e-17
0
3.209238431e-17
1.604619215e-17
0
3.122502257e-17
5.583641188e-18
1.517883041e-17
2.520770051e-18
1.057097118e-18
1.474514955e-17
2.032879073e-18
-1.626303259e-19
1.561251128e-17
-1.734179154e-18
1.110762905e-18
1.301042607e-18
1.187201379e-17
-4.824699668e-18
1.561251128e-17
-6.044427112e-18
-5.800481623e-18
3.122502257e-17
1.436567879e-18
1.328147661e-18
-1.604619215e-17
1.626303259e-19
-6.505213035e-19
-8.67361738e-19
-5.421010862e-20
1.897353802e-19
0
-1.633250643e-18
1.467078177e-17
0
2.683400377e-18
-1.707618422e-18
8.67361738e-19
-1.490777987e-18
4.90601483e-18
1.561251128e-17
1.084202172e-19
-1.301042607e-18
-6.938893904e-18
-3.903127821e-18
-1.734723476e-18
-6.938893904e-18
0
1.734723476e-18
0
0
1.734723476e-17
-1.387778781e-17
8.67361738e-19
1.561251128e-17
0
3.295974604e-17
1.387778781e-17
-6.938893904e-18
2.992397996e-17
-2.629190268e-18
1.301042607e-18
6.125742275e-18
-2.981555974e-19
6.201636427e-17
-4.14707331e-18
-5.421010862e-20
-8.67361738e-19
2.10098351e-18
4.702385122e-18
-3.035766083e-17
-5.963111949e-19
8.700722434e-18
-2.992397996e-17
2.710505431e-19
-1.734723476e-18
8.67361738e-19
-5.556536134e-18
0
0
2.168404345e-18
4.33680869e-19
0
-1.561251128e-17
1.691355389e-17
-6.938893904e-18
-1.091471005e-18
1.757134403e-17
-6.938893904e-18
0
-3.122502257e-17
-6.938893904e-18
-1.301042607e-18
8.67361738e-19
0
6.591949209e-17
0
1.161386647
6.938893904e-18
0
1.161392196
0
0
1.161390499
-6.938893904e-18
-6.938893904e-18
1.1613905
0
0
1.161392195
0
0
1.161386641
0
-1.944293295e-18
6.938893904e-18
7.835358365e-18
-8.688168047e-18
-6.938893904e-18
-2.473435948e-17
-3.035766083e-18
-6.938893904e-18
-2.385244779e-17
1.170938346e-17
0
-3.780298407e-17
-3.556183126e-17
0
2.954850537e-17
-1.561251128e-17
-6.938893904e-18
-3.903127821e-18
-8.67361738e-19
-6.938893904e-18
-5.204170428e-18
5.637851297e-18
0
8.67361738e-18
-1.301042607e-17
-1.387778781e-17
3.454896472e-18
1.953018958e-17
6.938893904e-18
-1.474514955e-17
2.341876693e-17
6.938893904e-18
5.03069808e-17
-6.028164079e-17
-6.938893904e-18
3.903127821e-18
-6.938893904e-18
1.161392477
0
0
1.161398013
-6.938893904e-18
6.938893904e-18
1.16139632
0
0
1.16139632
-6.938893904e-18
0
1.161398012
0
6.938893904e-18
1.161392474
-6.938893904e-18
9.219353212e-18
-6.938893904e-18
2.088943145e-17
-6.071532166e-18
6.938893904e-18
4.336795561e-19
1.604619215e-17
-1.387778781e-17
-1.003285556e-17
4.33680869e-19
-6.938893904e-18
-7.34347938e-18
2.471980953e-17
6.938893904e-18
2.910093348e-20
-9.107298249e-18
-6.938893904e-18
3.07913417e-17
1.474514955e-17
0
-5.204170428e-18
-1.040834086e-17
0
-9.107298249e-18
2.211772432e-17
0
1.778091563e-17
-8.67361738e-19
0
-2.602085214e-17
-3.209238431e-17
6.938893904e-18
-3.859759734e-17
3.035766083e-17
0
3.165870344e-17
-6.938893904e-18
1.161388198
0
6.938893904e-18
1.161393737
-6.938893904e-18
0
1.161392048
0
0
1.161392047
0
0
1.161393736
0
0
1.161388197
-6.938893904e-18
-1.789297042e-17
0
-1.994931997e-17
2.58753659e-18
6.938893904e-18
8.702712184e-18
3.2642444e-17
0
5.129072283e-17
-3.567821155e-17
-6.938893904e-18
-3.252606517e-17
-1.561251128e-17
0
-1.604619215e-17
2.099126744e-17
0
4.770489559e-17
1.572456607e-17
0
1.95156391e-17
-1.126115397e-17
-6.938893904e-18
-4.854316152e-17
-1.789729446e-17
-6.938893904e-18
1.359231557e-18
-1.827278545e-17
-6.938893904e-18
-1.734723476e-18
3.339342691e-17
-6.938893904e-18
1.734723476e-18
-1.033906325e-16
-6.938893904e-18
-1.604619215e-17
0
1.161385911
-6.938893904e-18
-1.387778781e-17
1.161391451
0
0
1.161389762
-6.938893904e-18
0
1.161389761
-6.938893904e-18
-6.938893904e-18
1.16139145
-6.938893904e-18
0
1.161385911
0
1.419941406e-17
-6.938893904e-18
-1.392143321e-17
2.299963383e-17
6.938893904e-18
3.301793387e-17
-2.738008257e-17
-1.387778781e-17
3.585821043e-18
1.517882978e-17
-6.938893904e-18
2.986579213e-17
1.301042607e-18
-6.938893904e-18
8.789449609e-17
-5.340094054e-17
-1.387778781e-17
-3.48107702e-17
3.295974604e-17
-6.938893904e-18
3.035766083e-17
-3.989863995e-17
6.938893904e-18
-9.974659987e-18
3.556183126e-17
0
-4.987329993e-17
-1.864827737e-17
0
1.387778781e-17
3.339342691e-17
0
-6.071532166e-18
-3.035766083e-17
-6.938893904e-18
3.382710778e-17
-6.938893904e-18
1.161385002
-6.938893904e-18
6.938893904e-18
1.161390541
6.938893904e-18
0
1.16138885
0
0
1.161388851
-6.938893904e-18
-1.387778781e-17
1.161390541
0
0
1.161385004
0
1.734723476e-17
0
1.908195824e-17
-3.469446952e-18
0
7.343484247e-18
-9.255482991e-19
-6.938893904e-18
3.585819143e-18
-2.226583925e-18
-6.938893904e-18
3.43771693e-17
-1.734723476e-17
0
-1.604619215e-17
-1.82727889e-17
0
8.610143452e-17
8.67361738e-19
0
-1.604619215e-17
-4.770489559e-18
0
-8.67361738e-19
1.734723476e-18
6.938893904e-18
-1.38195952e-17
-1.914015085e-17
0
-8.67361738e-19
-3.382710778e-17
-1.387778781e-17
-1.82145965e-17
5.074066167e-17
0
-2.341876693e-17
-6.938893904e-18
1.161379838
-6.938893904e-18
-6.938893904e-18
1.161385382
0
0
1.161383692
0
-6.938893904e-18
1.161383694
6.938893904e-18
-6.938893904e-18
1.161385385
6.938893904e-18
-6.938893904e-18
1.161379843
-6.938893904e-18
-2.992397996e-17
6.938893904e-18
-8.263200922e-17
6.722053469e-17
1.387778781e-17
1.604619215e-17
-3.209238431e-17
-6.938893904e-18
2.680346143e-17
5.722603746e-18
6.938893904e-18
-4.013126077e-17
8.630249293e-17
0
6.69031759e-17
5.941427905e-17
-6.938893904e-18
-3.209238431e-17
-3.888462689e-19
-7.571105046e-19
6.335239659e-19
2.606515024e-19
2.602085214e-18
6.351324389e-20
-1.517883041e-18
7.372574773e-18
1.396705253e-18
-1.469173193e-18
-4.33680869e-19
-2.5352606e-18
2.204357266e-18
6.505213035e-18
5.312590645e-18
-8.944667923e-19
5.204170428e-18
-4.851804722e-18
1.102533858e-19
0
1.082186596e-20
-2.602085214e-18
6.938893904e-18
-3.877545419e-18
8.254697453e-18
0
-1.649069308e-17
7.817075697e-18
0
-2.774475498e-17
-3.006241708e-18
0
0
-1.170938346e-17
6.938893904e-18
-3.903127821e-18
2.001349912e-19
0
-7.425268517e-19
-9.171658858e-20
3.035766083e-18
1.978380009e-18
-7.860461085e-19
3.899695464e-18
3.520767213e-19
9.294813254e-19
-5.218428686e-18
7.176536983e-18
2.251038411e-18
7.395218672e-21
3.375528316e-18
3.73390676e-18
-8.890045157e-19
-1.106880771e-18
-8.506562947e-19
-3.913951992e-18
1.453271209e-18
-1.897353802e-19
3.903127821e-18
1.446680813e-18
-2.068183132e-18
-4.33680869e-19
-5.462005514e-19
-4.386919333e-18
-4.445095509e-19
4.119968255e-18
-3.948833657e-18
7.372574773e-18
-2.855521244e-19
-3.513543897e-18
0
-2.818595318e-18
-2.279525703e-18
0
-4.445105191e-19
8.565328485e-19
-1.387778781e-17
2.127995694e-17
-8.695271854e-18
-6.938893904e-18
3.973136282e-18
1.473432246e-17
0
-3.343673586e-17
4.903553255e-17
-1.387778781e-17
5.206336358e-17
2.602085214e-17
-6.938893904e-18
3.209238431e-17
-9.825971983e-19
1.82145965e-17
-2.145398793e-18
1.53810861e-18
1.215786076e-17
-1.335027742e-18
1.00288701e-18
1.258071203e-17
2.57277656e-18
1.150439655e-18
-1.86915824e-17
1.157319559e-18
-7.517885978e-18
-3.031796975e-18
3.640276281e-18
1.870248748e-18
-4.347630434e-18
-6.678242767e-18
-8.767378315e-19
-9.10644656e-19
6.401198707e-19
6.877390099e-19
-1.736888737e-17
-3.126556033e-19
1.612542867e-18
1.345889692e-17
-1.654563552e-18
2.582599727e-18
3.903127821e-18
1.788933585e-18
5.854276437e-18
-5.225823039e-18
1.205967943e-18
6.125742275e-18
-3.924769279e-18
-4.614747432e-18
-1.412163379e-18
-1.387778781e-17
-3.903128582e-18
2.602085214e-18
-6.938893904e-18
7.821045833e-18
1.691423879e-18
-1.387778781e-17
7.927233263e-21
8.890112279e-19
0
-3.478106871e-17
-2.989439958e-17
0
-1.767202358e-18
2.645453301e-17
0
2.732189475e-17
-2.60651333e-19
-2.129364186e-17
-1.976465638e-18
-1.38235777e-18
4.445058782e-19
1.655735298e-19
3.112094594e-18
3.734777677e-17
-1.934859996e-18
6.114185714e-18
-3.209238431e-17
6.269464019e-18
2.541572362e-18
-4.770489559e-18
-2.382732645e-18
-3.346218724e-18
9.139756543e-18
1.87317767e-18
-2.178803555e-18
5.667378216e-18
1.003627463e-18
-3.320576787e-18
-1.81958427e-17
3.032406437e-18
4.869718412e-18
-3.534390631e-18
-2.42464463e-18
1.019665811e-17
-2.572513085e-18
-2.380835751e-18
-2.067858833e-18
4.683753385e-17
6.322211593e-18
1.287343792e-17
1.384532951e-17
-5.683540681e-18
2.602085214e-18
0
-1.322694957e-18
4.558671368e-19
-6.938893904e-18
-8.684441569e-18
4.33680869e-19
0
-1.647987302e-17
8.67361738e-19
6.938893904e-18
2.215811967e-17
3.469446952e-18
6.938893904e-18
1.702248001e-18
3.52861595e-18
0
4.299316747e-17
-4.6421261e-18
-3.089861034e-18
5.714343417e-18
-4.541043901e-18
2.733271914e-17
-2.470658258e-18
-1.086095663e-18
-3.388122531e-17
-3.598669383e-18
1.002886995e-18
-7.014658617e-18
1.540472555e-18
-5.324885548e-18
6.553541201e-18
3.375217339e-18
-1.18852363e-18
6.534737506e-18
-3.921976359e-19
3.035766083e-18
0
8.67361738e-19
-4.134468027e-18
-6.114829728e-18
-2.439454888e-19
4.092863201e-18
-1.392108112e-17
-9.694790098e-19
-5.086930865e-19
-1.301042607e-17
6.626976934e-18
6.518556935e-18
-9.150595811e-18
-3.619471995e-18
-7.685230402e-18
-1.47884248e-17
7.982213637e-18
-2.381572279e-18
0
3.035765321e-18
-3.895732572e-18
0
-1.170542095e-17
0
-6.938893904e-18
-2.81784331e-17
3.991738587e-17
0
-1.090696297e-17
2.385244779e-17
-6.938893904e-18
4.689959271e-17
1.474514955e-17
0
3.426078865e-17
5.792056012e-18
1.824411997e-17
1.941162642e-18
8.424607724e-19
2.0393829e-17
2.506272301e-18
2.082991044e-18
1.694312257e-17
1.7647727e-18
3.127482298e-18
2.731107145e-17
4.378103834e-18
-3.812566974e-18
2.650576469e-17
-4.196875242e-18
-6.077525907e-18
4.603216333e-17
1.097080224e-18
8.131516294e-20
0
4.075871247e-18
6.227283517e-18
-3.556072178e-18
1.4970802e-18
-3.091872102e-18
3.165870344e-17
-2.034033384e-18
1.180519906e-17
1.824419487e-17
2.710505431e-19
-8.67361738e-19
-4.770489559e-18
-2.034933301e-19
4.33680869e-18
1.040834086e-17
3.71294783e-18
-3.035766083e-18
-6.938893904e-18
-7.817077527e-18
-3.903127821e-18
0
-1.25875651e-17
-4.33680869e-19
0
-2.774475629e-17
7.361755452e-18
-6.938893904e-18
-3.913947298e-18
2.038300084e-17
-1.387778781e-17
4.211823545e-17
1.474514955e-17
0
-8.08669415e-19
5.475220971e-18
-3.911768849e-17
1.087481326e-19
4.536653497e-18
2.723543969e-17
5.998404375e-18
-4.372101189e-18
-9.538082867e-19
-1.28229029e-17
1.365758834e-19
-1.242189337e-18
4.865136483e-18
9.420604668e-20
2.694708053e-17
1.363113475e-18
2.385244779e-18
-3.955136938e-17
1.146449051e-17
1.084202172e-19
-4.33680869e-18
-1.897353802e-19
2.059984128e-18
-9.974659987e-18
2.439454888e-19
2.168404345e-19
-1.25767452e-17
-6.505213035e-19
-3.659182332e-18
-4.33680869e-19
-1.355252716e-19
-9.757819552e-19
-9.974659987e-18
1.653408313e-18
-8.402566837e-19
-1.301042607e-18
-3.767602549e-18
-5.637851297e-18
-6.938893904e-18
4.33680869e-19
-1.734723476e-18
-6.938893904e-18
3.469446952e-18
-1.82145965e-17
6.938893904e-18
8.239936511e-18
4.33680869e-19
0
-3.252606517e-17
1.431146868e-17
0
-4.33680869e-18
-1.517883041e-17
6.938893904e-18
4.33680869e-18
-2.710505431e-20
4.33680869e-18
2.981555974e-19
9.757819552e-19
4.770489559e-18
-4.065758147e-19
1.463672933e-18
-9.107298249e-18
-1.38235777e-18
-1.19262239e-18
-1.301042607e-18
1.301042607e-18
6.938893904e-18
-5.204170428e-18
2.57498016e-18
2.683400377e-18
8.67361738e-19
5.122855265e-18
5.421010862e-19
4.33680869e-19
8.944667923e-19
2.710505431e-18
-2.038300084e-17
2.331034671e-18
-1.626303259e-19
5.204170428e-18
6.404084469e-19
-6.305364798e-18
9.540979118e-18
-1.517883041e-18
6.722053469e-18
-1.301042607e-17
2.303929617e-18
-6.776263578e-18
-7.806255642e-18
5.149960319e-18
-3.903127821e-18
0
3.469446952e-18
-1.127570259e-17
-6.938893904e-18
-2.125036258e-17
5.204170428e-18
0
-2.083887473e-17
-1.038614784e-17
-6.938893904e-18
5.204170428e-18
2.818925648e-17
-6.938893904e-18
1.084202172e-17
5.03069808e-17
-6.938893904e-18
0
-3.523657061e-19
1.561251128e-17
2.005774019e-18
-5.421010862e-19
-9.540979118e-18
-6.776263578e-19
5.149960319e-19
-1.301042607e-18
2.947570942e-18
-5.081160539e-19
1.301042607e-18
1.111307227e-18
5.014435048e-18
-4.770489559e-18
1.029992064e-18
2.141299291e-18
0
-3.442341898e-18
-4.011548038e-18
6.071532166e-18
8.131516294e-20
-1.734723476e-18
4.770489559e-18
1.978668965e-18
-2.76471554e-18
-8.239936511e-18
4.708983294e-19
-2.42246224e-18
1.25767452e-17
-7.047314121e-19
2.303929617e-18
1.170938346e-17
-6.91178885e-18
8.565197163e-18
9.107298249e-18
-3.062871137e-18
8.239936511e-18
-6.938893904e-18
-3.035766083e-18
8.67361738e-19
6.938893904e-18
-6.071532166e-18
5.637851297e-18
-6.938893904e-18
-1.646508466e-17
-2.126515094e-17
0
-4.33680869e-19
3.903127821e-18
6.938893904e-18
1.647987302e-17
2.038300084e-17
-6.938893904e-18
-3.512815039e-17
-1.788933585e-18
1.387778781e-17
-1.057097118e-18
-1.355252716e-19
1.605358686e-17
-1.267057222e-18
1.639647261e-18
1.646508595e-17
1.734723476e-18
-1.897353802e-19
-1.037876873e-17
6.724868157e-18
3.729551948e-18
1.215785374e-17
-5.986569544e-18
-3.88572092e-18
1.126832036e-17
1.105764953e-18
1.978668965e-18
-4.076600169e-17
-2.76471554e-18
-7.860465751e-19
-3.383450248e-17
8.333763528e-19
-7.684074373e-18
7.387361845e-18
-1.497658559e-18
1.036872636e-18
-1.217263646e-17
3.224459638e-19
-9.638453788e-18
2.600606274e-17
-4.638611746e-18
2.909938964e-18
7.382232083e-21
1.767370805e-18
-9.540979118e-18
6.938893904e-18
-1.474514955e-17
-1.084202172e-17
0
-3.469446952e-18
-4.33680869e-19
-6.938893904e-18
8.247329013e-18
-1.171677596e-17
0
-3.295974604e-17
4.597017211e-17
0
-1.474514955e-17
0
-1.387778781e-17
-3.469446952e-18
-2.168404345e-18
-2.168404345e-18
-3.198396409e-18
-2.412349834e-18
0
-8.131516294e-19
-1.843143693e-18
-9.540979118e-18
3.17733674e-18
-1.117352613e-18
2.558717127e-17
-6.207057437e-18
5.854691731e-18
-3.512815039e-17
7.562310153e-18
1.273937553e-18
-1.344410694e-17
-4.391018799e-18
4.255493527e-18
-1.170938346e-17
4.770489559e-18
-4.634964287e-18
2.818925648e-17
-4.33680869e-19
2.927345866e-18
-9.974659987e-18
2.689863234e-18
-6.376150621e-18
-2.688821388e-17
-2.493664997e-18
4.933119885e-18
9.540979118e-18
1.843143693e-18
-8.185726402e-18
1.431146868e-17
7.318364664e-19
2.602085214e-18
0
8.239936511e-18
-1.25767452e-17
-6.938893904e-18
-9.107298249e-18
-1.170938346e-17
6.938893904e-18
7.392326326e-21
1.300303374e-17
-6.938893904e-18
9.107298249e-18
0
0
-2.992397996e-17
3.252606517e-17
-6.938893904e-18
-3.903127821e-18
3.659182332e-18
6.071532166e-18
1.165517335e-18
6.044427112e-18
-3.903127821e-18
4.743384505e-18
1.138412281e-18
-1.387778781e-17
2.067282654e-19
-3.134074131e-18
1.517883041e-17
3.523657061e-19
-2.087089182e-18
-5.637851297e-18
-5.421010862e-20
-4.255493527e-18
-2.602085214e-17
-6.938893904e-18
-4.933119885e-18
-5.551115123e-17
-2.981555974e-19
-2.900240811e-18
3.469446952e-18
-1.084202172e-18
1.084202172e-18
0
-6.169426779e-18
8.392041233e-18
-1.691355389e-17
2.168404345e-19
-2.873135757e-18
2.298508606e-17
-4.90601483e-18
6.722053469e-18
4.33680869e-18
-1.355252716e-19
8.239936511e-18
-6.938893904e-18
4.770489559e-18
-1.778091563e-17
-6.938893904e-18
-4.770489559e-18
-1.474514955e-17
0
-3.895743898e-18
-5.64523522e-18
0
1.127570259e-17
2.471980953e-17
-6.938893904e-18
-1.344410694e-17
-3.686287386e-17
6.938893904e-18
-3.165870344e-17
1.897353802e-19
1.170938346e-17
-4.472333962e-18
2.547875105e-18
-4.33680869e-19
4.255493527e-18
-4.391018799e-18
2.645453301e-17
-8.067638722e-18
-2.015441482e-18
-6.982261991e-17
-6.776263578e-19
-5.312590645e-18
-2.775557562e-17
5.502326025e-18
2.493664997e-18
-5.074066167e-17
-1.57209315e-18
-1.734723476e-18
-6.938893904e-18
8.239936511e-18
-4.770489559e-18
-6.938893904e-18
0
8.239936511e-18
0
1.658934602e-17
-5.431538639e-19
0
1.301042607e-18
-1.301042607e-18
6.938893904e-18
2.818925648e-17
-1.647987302e-17
0
2.992397996e-17
0
1.134627062
-6.938893904e-18
-6.938893904e-18
1.13469085
0
0
1.134684553
0
0
1.134684554
0
-6.938893904e-18
1.134690847
-6.938893904e-18
0
1.134627052
0
-7.587294823e-18
6.938893904e-18
-1.309670642e-18
8.67361738e-18
-6.938893904e-18
2.21436652e-17
-9.549599163e-18
0
1.473222104e-17
1.736021384e-17
-6.938893904e-18
1.692653451e-17
-2.688821388e-17
0
3.297705202e-17
-1.779817169e-17
0
-3.503269976e-18
-8.239936511e-18
6.938893904e-18
-8.67361738e-18
-1.517883041e-17
-6.938893904e-18
-1.517883041e-17
1.214306433e-17
0
3.6429193e-17
-2.905661822e-17
-6.938893904e-18
1.864827737e-17
-2.471980953e-17
-6.938893904e-18
9.974659987e-18
-9.540979118e-18
6.938893904e-18
-4.33680869e-19
-6.938893904e-18
1.134715324
0
0
1.134778567
-1.387778781e-17
-1.387778781e-17
1.134772286
0
-6.938893904e-18
1.134772285
0
-6.938893904e-18
1.134778564
-6.938893904e-18
0
1.13471532
-6.938893904e-18
1.094784393e-19
-6.938893904e-18
-7.398501204e-18
8.67361738e-19
0
-1.823186812e-17
8.239936511e-18
0
1.911648184e-17
-3.472900211e-17
0
9.558238475e-18
-8.67361738e-19
-6.938893904e-18
0
0
-6.938893904e-18
-3.122502257e-17
0
-6.938893904e-18
-8.239936511e-18
1.301042607e-18
-1.387778781e-17
2.558717127e-17
-1.734723476e-18
-6.938893904e-18
-1.822322515e-17
3.383573644e-17
6.938893904e-18
-1.734723476e-17
-8.239936511e-18
6.938893904e-18
-1.387778781e-17
-8.239936511e-18
0
-5.464378949e-17
0
1.134702116
6.938893904e-18
0
1.134765386
0
-6.938893904e-18
1.134759119
0
-6.938893904e-18
1.134759116
-6.938893904e-18
-6.938893904e-18
1.134765383
0
0
1.134702114
0
0
6.938893904e-18
3.907443734e-18
6.930261234e-18
-1.387778781e-17
9.115923737e-18
1.561251128e-17
-6.938893904e-18
4.640385298e-17
-1.517883275e-17
-1.387778781e-17
-3.034040752e-17
1.870003028e-17
-6.938893904e-18
1.517883105e-17
-3.486712928e-18
-6.938893904e-18
-3.823160484e-17
-1.82145965e-17
0
-5.64216721e-18
-4.94309864e-17
0
-4.337671239e-17
2.602085214e-17
-6.938893904e-18
4.371302333e-18
-3.516264169e-17
-6.938893904e-18
-1.517883041e-17
4.114792964e-17
6.938893904e-18
-1.776365029e-17
3.514541636e-17
-6.938893904e-18
-7.738567271e-18
0
1.134695761
0
-1.387778781e-17
1.134759056
-6.938893904e-18
0
1.134752788
0
-6.938893904e-18
1.134752787
0
0
1.134759055
0
6.938893904e-18
1.134695761
-6.938893904e-18
-1.410520087e-18
0
-4.381902796e-17
-1.726095186e-18
1.387778781e-17
7.381197041e-18
-9.558223358e-18
-6.938893904e-18
-1.472790737e-17
1.342686179e-17
-6.938893904e-18
-1.751967716e-18
1.517883041e-17
-6.938893904e-18
2.350505343e-17
-2.168404345e-18
0
-8.67361738e-19
-4.33680869e-19
0
-4.33680869e-19
-4.770489559e-18
-1.387778781e-17
1.344410694e-17
3.035766083e-18
-6.938893904e-18
-3.387882542e-17
-2.770385798e-17
-6.938893904e-18
-1.517883041e-17
1.691355389e-17
-6.938893904e-18
-1.82145965e-17
-4.770489559e-18
-6.938893904e-18
3.122502257e-17
0
1.134695005
-6.938893904e-18
-6.938893904e-18
1.13475831
0
0
1.134752036
0
0
1.134752037
-1.387778781e-17
0
1.134758311
-1.387778781e-17
-6.938893904e-18
1.134695007
-6.938893904e-18
2.981450262e-17
-6.938893904e-18
4.297757372e-17
-3.817254517e-17
0
8.248583097e-18
-2.386106883e-17
6.938893904e-18
1.604624001e-17
1.736447476e-17
1.387778781e-17
1.649716295e-17
-5.034147147e-17
0
-5.296083821e-17
-3.124228061e-17
0
2.218557411e-17
-2.905661822e-17
0
-3.165870344e-17
1.604619215e-17
0
-8.67361738e-19
-1.517883041e-17
6.938893904e-18
-3.486734816e-18
1.649716089e-17
-6.938893904e-18
3.122502257e-17
1.734723476e-18
-6.938893904e-18
-1.604619215e-17
-2.558717127e-17
0
-3.946495908e-17
-6.938893904e-18
1.134656009
-6.938893904e-18
0
1.134719495
0
0
1.134713227
0
0
1.134713229
-6.938893904e-18
-6.938893904e-18
1.1347195
-6.938893904e-18
0
1.134656018
6.938893904e-18
8.67361738e-19
-6.938893904e-18
4.370840911e-18
-3.469446952e-17
0
-4.253473323e-17
-4.33680869e-18
6.938893904e-18
7.006888698e-18
-3.77982304e-17
-6.938893904e-18
3.3427435e-17
1.170938346e-17
-6.938893904e-18
-3.165870344e-17
-6.201636427e-17
-6.938893904e-18
-9.36750677e-17
-5.418746726e-19
-6.830900554e-18
-5.05881924e-19
2.32145056e-18
-3.256746575e-19
6.855638908e-19
-2.620076261e-18
0
-2.564681746e-18
1.355252716e-19
7.806255642e-18
-2.098318848e-18
-1.730078398e-18
-8.67361738e-19
5.393905808e-18
4.00504389e-18
-8.67361738e-19
-3.306816626e-18
-1.604619215e-17
-6.938893904e-18
-5.641802755e-18
1.691355389e-17
-6.938893904e-18
8.673615548e-18
-2.471980953e-17
-6.938893904e-18
3.598822557e-17
-9.11215602e-18
0
-1.735209588e-17
-2.173269122e-18
-6.938893904e-18
1.735211361e-17
-2.168404345e-18
-1.387778781e-17
-8.67361738e-18
1.897357895e-19
-3.034804061e-18
-7.973206659e-19
1.962849372e-18
2.125545487e-17
-2.536826097e-18
-1.463672933e-18
-1.467207067e-21
-3.949423945e-18
-7.001805262e-19
-1.431772223e-17
-1.120896432e-18
-1.329829658e-18
4.337891805e-18
6.244279622e-18
1.499231936e-18
3.467933937e-18
-9.01073397e-19
6.409340976e-19
-1.691503979e-17
-7.318364664e-19
-1.06838258e-18
-1.778091563e-17
7.764492911e-19
-9.122024389e-19
1.517756054e-17
-4.082621643e-19
5.260516853e-19
2.166964034e-18
-6.841757439e-18
1.597511407e-18
-1.344410694e-17
-1.256430127e-18
1.788933585e-18
-7.372574773e-18
4.67958719e-18
-7.806255642e-18
0
1.302140845e-18
-9.975930069e-18
-1.387778781e-17
-1.648240493e-17
-8.239936511e-18
0
-8.242464918e-18
-3.946748748e-17
-6.938893904e-18
1.474514955e-17
-1.735229858e-17
0
-7.372574773e-18
-8.239936511e-18
-6.938893904e-18
-5.72550415e-17
-7.781146577e-19
1.734185677e-18
5.44788038e-19
-8.052408191e-19
-1.691608495e-17
-5.488406975e-19
3.442341898e-18
-2.602590147e-17
4.424860674e-18
-4.974874809e-18
1.604329159e-17
-7.973283034e-19
6.66344803e-19
8.676142573e-18
1.428200891e-18
-1.498689638e-18
8.242390546e-18
-3.12369985e-18
2.900959839e-18
-9.977114024e-18
1.888986062e-18
7.786804398e-19
1.734143494e-17
2.331034671e-18
7.880459458e-19
1.734141832e-17
-2.865223209e-18
6.584338522e-19
-1.69160727e-17
1.238463937e-18
9.777818656e-19
-9.97718518e-18
3.723762565e-18
-8.968290293e-20
-9.109752284e-18
2.77502883e-18
7.372574773e-18
-6.938893904e-18
-9.546030216e-18
2.166955366e-18
-6.938893904e-18
-1.821963349e-17
9.538068178e-18
-6.938893904e-18
-4.361958721e-19
-2.211520932e-17
-6.938893904e-18
-1.691607054e-17
7.806255642e-18
6.938893904e-18
1.306093701e-18
-1.734723476e-18
0
-7.676151381e-17
-1.182310655e-18
2.646431746e-17
-1.605426459e-18
2.87892441e-20
1.739758099e-18
6.503576354e-18
-2.021600281e-18
3.469867852e-17
3.050410351e-18
-4.391417221e-19
4.278461651e-19
-2.590806743e-18
9.26446952e-18
-4.944969318e-17
4.029828495e-18
1.24928824e-18
-1.300308773e-17
5.841467394e-18
-2.884374616e-18
-2.863761403e-17
-2.144667406e-18
2.447139065e-18
-4.164343267e-17
-1.931016944e-19
-5.795934369e-18
-8.25581705e-18
-4.982782204e-18
-5.605016084e-18
1.776924195e-17
-2.663026968e-18
6.470823438e-18
6.938893904e-18
2.949907503e-18
-1.931034957e-19
-1.17167218e-17
-4.752638316e-18
-1.019206831e-17
-6.938893904e-18
-1.303561671e-18
7.806255642e-18
-6.938893904e-18
4.361910279e-19
-8.67361738e-19
-6.938893904e-18
1.908113172e-17
-1.085205577e-17
-6.938893904e-18
-5.899565913e-17
3.339342691e-17
-6.938893904e-18
7.375091462e-18
2.340712804e-17
-6.938893904e-18
5.67992124e-17
-3.571999603e-18
-1.562098053e-17
-3.358165536e-18
5.42872696e-19
-1.475349059e-17
7.968688389e-19
-2.353591699e-18
4.33680869e-19
-3.958250856e-18
-6.96818008e-19
-1.691857111e-17
3.361026735e-18
2.051158275e-18
7.372574773e-18
8.025650901e-18
-2.640470311e-18
-4.33680869e-19
-6.200051564e-18
6.776263578e-19
1.647987302e-17
2.331034671e-18
-1.999544993e-18
2.298508606e-17
1.870248748e-18
3.905122914e-18
-8.239936511e-18
1.901903182e-18
2.113778801e-19
-2.515850269e-17
-2.791820594e-18
3.506917445e-18
-9.546004196e-18
-3.388131789e-18
3.625705671e-18
1.517883041e-17
2.168404345e-18
8.78163177e-18
-6.938893904e-18
7.806255642e-18
1.561251128e-17
-1.387778781e-17
1.647946404e-17
-1.734974415e-17
-6.938893904e-18
-2.173419826e-18
-6.500197554e-18
-1.387778781e-17
-8.676126772e-18
-1.517883041e-17
-1.387778781e-17
8.242454814e-18
6.071532166e-18
0
-8.239936511e-18
4.719178925e-18
1.822202309e-17
7.702268846e-19
4.346802064e-19
2.558388629e-17
7.20040281e-18
-1.371992499e-18
2.515857093e-17
-1.878153855e-18
2.272281027e-18
-1.737230267e-18
5.110401989e-18
1.357707903e-18
1.604873879e-17
-8.152898278e-18
-3.715581054e-19
1.735218583e-17
-1.90527867e-18
-2.891125603e-18
-3.035766083e-18
-1.997864174e-18
1.301042607e-18
1.474514955e-17
-2.252064639e-19
-7.318364664e-19
5.637851297e-18
-5.474055904e-18
-3.919194027e-19
2.596324589e-18
1.76182853e-18
-3.749340444e-19
-4.33680869e-19
3.898455839e-19
-1.788933585e-18
6.071532166e-18
1.788933585e-18
1.669588672e-17
-6.938893904e-18
1.040586547e-17
1.517883041e-17
0
1.691304287e-17
-1.691602042e-17
0
-1.908935286e-17
-2.428859354e-17
6.938893904e-18
-2.559457087e-17
-4.435543516e-19
0
1.908345136e-17
-2.168404345e-18
-6.938893904e-18
-4.33680869e-19
-2.565867958e-18
4.94266015e-17
-8.705707171e-18
2.99091415e-18
1.561251128e-17
-2.42692048e-18
-3.884412571e-18
7.806255642e-18
-8.306682522e-18
8.415439142e-19
-6.593213776e-17
-1.033238118e-17
6.054752917e-18
-4.381438002e-17
1.374430472e-18
7.318364664e-19
-2.039601837e-17
8.87901652e-19
-1.653408313e-18
6.505213035e-18
-6.234162492e-19
-2.358139725e-18
-8.239936511e-18
3.713392441e-18
1.111307227e-18
-1.517883041e-17
4.113460027e-18
-7.480693463e-20
0
8.131516294e-19
2.168404345e-19
1.301042607e-18
9.757819552e-19
-1.301042607e-18
2.602085214e-18
-2.547875105e-18
7.806255642e-18
-1.387778781e-17
4.33680869e-19
-1.25767452e-17
-6.938893904e-18
6.071532166e-18
8.67361738e-18
-6.938893904e-18
-3.038802166e-18
-1.647683694e-17
-6.938893904e-18
2.168404345e-17
4.33680869e-18
0
-1.734723476e-17
1.734723476e-17
0
-3.035766083e-17
-7.047314121e-19
9.107298249e-18
-1.95156391e-18
-1.870248748e-18
-4.33680869e-18
-8.131516294e-19
3.903127821e-18
-8.67361738e-18
1.07583124e-18
5.158331251e-18
1.301042607e-18
5.149960319e-19
-5.448115917e-18
-8.239936511e-18
3.415236843e-18
-3.008661029e-18
0
-2.439454888e-18
-1.897353802e-19
-2.081668171e-17
-4.607859233e-19