/*--------------------------------*- C++ -*----------------------------------*\
  =========                 |
  \\      /  F ield         | OpenFOAM: The Open Source CFD Toolbox
   \\    /   O peration     | Website:  https://openfoam.org
    \\  /    A nd           | Version:  7
     \\/     M anipulation  |
\*---------------------------------------------------------------------------*/
FoamFile
{
    version     2.0;
    format      ascii;
    class       surfaceScalarField;
    location    "2";
    object      rhoPhi;
}
// * * * * * * * * * * * * * * * * * * * * * * * * * * * * * * * * * * * * * //

dimensions      [1 0 -1 0 0 0 0];

internalField   nonuniform List<scalar> 
30564
(
6.197271328e-08
9.317752203e-08
4.86081461e-05
9.575319939e-08
9.06878545e-08
4.871992982e-05
5.027771417e-08
9.345657175e-08
4.871525142e-05
8.011101905e-09
9.356585577e-08
4.871200426e-05
6.452641613e-08
9.061510931e-08
4.86972071e-05
2.323033257e-08
9.351330784e-08
4.871101709e-05
-1.67999008e-08
9.349871439e-08
4.870979799e-05
4.072401326e-08
9.065010217e-08
4.869614976e-05
2.04044168e-12
9.351963809e-08
4.871044639e-05
-4.071972026e-08
9.351940501e-08
4.871044603e-05
1.680299927e-08
9.064950587e-08
4.869614793e-05
-2.322851869e-08
9.349796763e-08
4.87097959e-05
-6.452735735e-08
9.351237773e-08
4.871101249e-05
-8.01437127e-09
9.061414066e-08
4.869720051e-05
-5.028255561e-08
9.356496221e-08
4.871199642e-05
-9.575809111e-08
9.345580635e-08
4.871524353e-05
-6.197630204e-08
9.068721806e-08
4.871992294e-05
9.317703253e-08
4.860814064e-05
5.982383501e-08
1.05524742e-07
4.877222176e-05
9.805285385e-08
1.07751236e-07
4.888082215e-05
5.020402809e-08
1.056076358e-07
4.888002266e-05
5.918240604e-09
1.054674524e-07
4.88767893e-05
6.662920525e-08
1.076743103e-07
4.885827941e-05
2.313232874e-08
1.055075256e-07
4.887583209e-05
-1.91496728e-08
1.055069651e-07
4.887463925e-05
4.285412107e-08
1.076309782e-07
4.885705058e-05
1.88925032e-12
1.054945668e-07
4.887521859e-05
-4.285005173e-08
1.054942983e-07
4.887521819e-05
1.915257789e-08
1.076303066e-07
4.885704877e-05
-2.313060037e-08
1.055059156e-07
4.887463714e-05
-6.663012599e-08
1.055063213e-07
4.887582755e-05
-5.921414963e-09
1.076731228e-07
4.885827293e-05
-5.020874503e-08
1.054664267e-07
4.887678159e-05
-9.805764536e-08
1.056068186e-07
4.888001488e-05
-5.982731027e-08
1.077506995e-07
4.888081535e-05
1.055243713e-07
4.877221633e-05
6.233054911e-08
7.260600481e-08
4.87337335e-05
9.564096947e-08
7.244320255e-08
4.884623919e-05
5.032444427e-08
7.272013594e-08
4.884128563e-05
8.234015016e-09
7.269263474e-08
4.883801807e-05
6.435203522e-08
7.240178995e-08
4.882333564e-05
2.324440429e-08
7.268370781e-08
4.883701508e-05
-1.65665066e-08
7.2679339e-08
4.883575422e-05
4.053028433e-08
7.238804987e-08
4.882231347e-05
1.689171121e-12
7.267689567e-08
4.883643951e-05
-4.052652721e-08
7.267654813e-08
4.883643905e-05
1.656922288e-08
7.238710863e-08
4.882231154e-05
-2.324267236e-08
7.267803616e-08
4.883575193e-05
-6.435280858e-08
7.268219177e-08
4.88370105e-05
-8.236945236e-09
7.240040916e-08
4.882332926e-05
-5.032891321e-08
7.269153239e-08
4.883801052e-05
-9.564548676e-08
7.271951971e-08
4.884127803e-05
-6.233389637e-08
7.244301032e-08
4.88462325e-05
7.260618438e-08
4.873372821e-05
6.255816667e-08
2.570845202e-08
4.874756011e-05
9.544593123e-08
2.388544711e-08
4.886000037e-05
5.029925672e-08
2.584210431e-08
4.885518211e-05
8.39024371e-09
2.590237599e-08
4.885192794e-05
6.41531973e-08
2.379360248e-08
4.883711539e-05
2.323084863e-08
2.584730343e-08
4.885091847e-05
-1.638229355e-08
2.583795753e-08
4.884964625e-05
4.0344067e-08
2.381847694e-08
4.883609987e-05
1.418737817e-12
2.58521641e-08
4.885033684e-05
-4.034079533e-08
2.585183211e-08
4.885033628e-05
1.638469093e-08
2.381756802e-08
4.883609774e-05
-2.3229159e-08
2.583671227e-08
4.884964375e-05
-6.415369409e-08
2.584580966e-08
4.885091392e-05
-8.392795125e-09
2.379211891e-08
4.883710919e-05
-5.030318267e-08
2.590129533e-08
4.885192077e-05
-9.545000621e-08
2.584149754e-08
4.885517486e-05
-6.256115233e-08
2.3885178e-08
4.885999398e-05
2.57086359e-08
4.874755495e-05
5.959838519e-08
8.234686445e-08
4.872797056e-05
9.804247609e-08
8.456778708e-08
4.883679405e-05
5.014760257e-08
8.23438607e-08
4.883553303e-05
5.773733988e-09
8.222477973e-08
4.883227157e-05
6.66965332e-08
8.458974275e-08
4.881413669e-05
2.310808756e-08
8.226994649e-08
4.883131023e-05
-1.925574811e-08
8.227726134e-08
4.883010458e-05
4.294651566e-08
8.454061541e-08
4.881291651e-05
1.069468098e-12
8.225667385e-08
4.883069659e-05
-4.294386793e-08
8.22563399e-08
4.883069596e-05
1.925771627e-08
8.453961302e-08
4.881291433e-05
-2.310646614e-08
8.227593198e-08
4.88301021e-05
-6.669677579e-08
8.226847052e-08
4.883130599e-05
-5.775673625e-09
8.458850954e-08
4.881413108e-05
-5.015084273e-08
8.222419357e-08
4.883226509e-05
-9.804596303e-08
8.234402028e-08
4.883552642e-05
-5.960089287e-08
8.456873944e-08
4.883678816e-05
8.234838124e-08
4.872796574e-05
6.240571639e-08
3.873330321e-08
4.874427293e-05
9.558212966e-08
3.865139342e-08
4.885690446e-05
5.029106046e-08
3.878505341e-08
4.885185152e-05
8.241845673e-09
3.876679689e-08
4.884858004e-05
6.429138806e-08
3.862181951e-08
4.883402236e-05
2.322278508e-08
3.875992342e-08
4.884758236e-05
-1.653520665e-08
3.875975259e-08
4.884631101e-05
4.0484871e-08
3.861299833e-08
4.883299788e-05
8.149194104e-13
3.8756913e-08
4.884699725e-05
-4.048278461e-08
3.875655513e-08
4.884699653e-05
1.653690038e-08
3.861231166e-08
4.883299567e-05
-2.322110864e-08
3.875898103e-08
4.884630852e-05
-6.429121098e-08
3.875904514e-08
4.884757842e-05
-8.242983931e-09
3.862128877e-08
4.883401744e-05
-5.029339667e-08
3.876686615e-08
4.884857427e-05
-9.558466746e-08
3.878596782e-08
4.885184568e-05
-6.240751914e-08
3.865306087e-08
4.885689905e-05
3.873579179e-08
4.874426834e-05
6.244735386e-08
-1.979037085e-09
4.874136039e-05
9.552132488e-08
-4.144690224e-09
4.885392379e-05
5.028334026e-08
-1.864624743e-09
4.884891954e-05
8.286006466e-09
-1.781763742e-09
4.88456489e-05
6.423784235e-08
-4.217457397e-09
4.883102812e-05
2.322249955e-08
-1.837116044e-09
4.884464624e-05
-1.648200785e-08
-1.845061212e-09
4.884337483e-05
4.04343841e-08
-4.185949811e-09
4.883000988e-05
5.283640484e-13
-1.830662112e-09
4.884406491e-05
-4.043257478e-08
-1.830747464e-09
4.884406426e-05
1.648357591e-08
-4.186135879e-09
4.883000782e-05
-2.322072892e-08
-1.844947393e-09
4.884337249e-05
-6.423713131e-08
-1.837047984e-09
4.884464288e-05
-8.286344615e-09
-4.216972477e-09
4.8831024e-05
-5.028463349e-08
-1.780602174e-09
4.88456441e-05
-9.552289295e-08
-1.862519635e-09
4.884891451e-05
-6.244817821e-08
-4.141523284e-09
4.8853919e-05
-1.975073252e-09
4.874135619e-05
5.964980077e-08
5.397558944e-08
4.872851293e-05
9.797346381e-08
5.620502424e-08
4.883715632e-05
5.013312178e-08
5.393933951e-08
4.883608567e-05
5.820092074e-09
5.383465906e-08
4.883282543e-05
6.662878739e-08
5.624755802e-08
4.88144901e-05
2.31023277e-08
5.388277873e-08
4.883185954e-05
-1.920031591e-08
5.389102115e-08
4.883065539e-05
4.28854032e-08
5.620417256e-08
4.881327383e-05
5.111905028e-13
5.387236301e-08
4.883124689e-05
-4.288363387e-08
5.38726215e-08
4.883124639e-05
1.920210893e-08
5.620498972e-08
4.881327207e-05
-2.310043037e-08
5.389260058e-08
4.883065337e-05
-6.66274944e-08
5.388469072e-08
4.883185688e-05
-5.819584945e-09
5.62499851e-08
4.881448676e-05
-5.01333098e-08
5.383779134e-08
4.883282154e-05
-9.797373833e-08
5.394336666e-08
4.883608143e-05
-5.964970443e-08
5.62095896e-08
4.883715198e-05
5.398084361e-08
4.872850892e-05
6.240204512e-08
1.307156913e-08
4.874150275e-05
9.557152651e-08
1.302747634e-08
4.885410996e-05
5.028177126e-08
1.309493553e-08
4.884907035e-05
8.238458944e-09
1.309110838e-08
4.88457937e-05
6.428273799e-08
1.302022246e-08
4.883122254e-05
2.321964462e-08
1.308848685e-08
4.884479458e-05
-1.653476407e-08
1.308850589e-08
4.884352608e-05
4.048064634e-08
1.30176641e-08
4.883019707e-05
8.424209631e-13
1.308786715e-08
4.884421112e-05
-4.047813228e-08
1.308820487e-08
4.884421082e-05
1.653744504e-08
1.3018364e-08
4.883019603e-05
-2.321722501e-08
1.308981016e-08
4.884352466e-05
-6.428080366e-08
1.308986683e-08
4.884479273e-05
-8.237171635e-09
1.302185009e-08
4.883122007e-05
-5.028103407e-08
1.309318143e-08
4.884579047e-05
-9.557128566e-08
1.309743186e-08
4.884906641e-05
-6.240136821e-08
1.303077908e-08
4.885410561e-05
1.307514762e-08
4.874149828e-05
6.239886758e-08
-2.673696903e-08
4.874040655e-05
9.557077689e-08
-2.903804155e-08
4.885299345e-05
5.028048256e-08
-2.664781495e-08
4.884796515e-05
8.236705232e-09
-2.655092731e-08
4.884468811e-05
6.428271783e-08
-2.909143162e-08
4.883010279e-05
2.321936437e-08
-2.66023699e-08
4.884368659e-05
-1.653564751e-08
-2.661024338e-08
4.884241844e-05
4.048164251e-08
-2.9053747e-08
4.882907723e-05
1.228025765e-12
-2.65938129e-08
4.884310423e-05
-4.047863721e-08
-2.659380096e-08
4.884310419e-05
1.65389969e-08
-2.905355592e-08
4.882907687e-05
-2.321675703e-08
-2.660980723e-08
4.884241765e-05
-6.428048327e-08
-2.660214136e-08
4.884368543e-05
-8.23501689e-09
-2.909126032e-08
4.883010091e-05
-5.027941928e-08
-2.65506084e-08
4.884468523e-05
-9.556986897e-08
-2.664700165e-08
4.884796141e-05
-6.239814215e-08
-2.903668326e-08
4.885298872e-05
-2.673453135e-08
4.874040165e-05
5.968588657e-08
3.178198945e-08
4.872583401e-05
9.793191074e-08
3.40267901e-08
4.883443888e-05
5.012610069e-08
3.171421968e-08
4.883341329e-05
5.8529469e-09
3.161966387e-08
4.883015128e-05
6.658623229e-08
3.408611549e-08
4.881177147e-05
2.309992297e-08
3.16724618e-08
4.882918377e-05
-1.916353776e-08
3.168126665e-08
4.882798057e-05
4.28466819e-08
3.404846618e-08
4.881055544e-05
1.273413382e-12
3.166406849e-08
4.882857171e-05
-4.284345991e-08
3.166394831e-08
4.882857187e-05
1.91669957e-08
3.404812742e-08
4.881055551e-05
-2.309749346e-08
3.168090511e-08
4.882797999e-05
-6.658412488e-08
3.167167626e-08
4.88291827e-05
-5.851273e-09
3.40850923e-08
4.881176948e-05
-5.012480835e-08
3.161861346e-08
4.883014815e-05
-9.793082377e-08
3.171346191e-08
4.883340911e-05
-5.968457897e-08
3.402662979e-08
4.88344337e-05
3.178277452e-08
4.872582843e-05
6.240301697e-08
-7.402967048e-09
4.873972843e-05
9.557109733e-08
-7.413749103e-09
4.885232101e-05
5.02805543e-08
-7.408401505e-09
4.884729427e-05
8.237670427e-09
-7.403039617e-09
4.884401698e-05
6.428107009e-08
-7.403698594e-09
4.882943201e-05
2.321881486e-08
-7.399077651e-09
4.884301529e-05
-1.653569748e-08
-7.397818122e-09
4.884174771e-05
4.048037211e-08
-7.400159956e-09
4.88284044e-05
1.200372085e-12
-7.397455119e-09
4.884243222e-05
-4.047731737e-08
-7.397679986e-09
4.884243239e-05
1.653904297e-08
-7.400781767e-09
4.882840449e-05
-2.321681928e-08
-7.398727702e-09
4.884174682e-05
-6.427933818e-08
-7.400459202e-09
4.884301384e-05
-8.236264304e-09
-7.405430656e-09
4.882942946e-05
-5.027934203e-08
-7.404866608e-09
4.884401318e-05
-9.556988567e-08
-7.410038714e-09
4.884728933e-05
-6.240138609e-08
-7.414877673e-09
4.885231501e-05
-7.40328574e-09
4.873972204e-05
6.239862275e-08
-4.62973771e-08
4.873940887e-05
9.557943877e-08
-4.859155207e-08
4.885201088e-05
5.028269512e-08
-4.624240422e-08
4.884697857e-05
8.233561511e-09
-4.613642624e-08
4.884370075e-05
6.428845034e-08
-4.863024114e-08
4.882912267e-05
2.321963865e-08
-4.618177034e-08
4.884269979e-05
-1.654239805e-08
-4.618789235e-08
4.884143291e-05
4.048655292e-08
-4.858528445e-08
4.882809327e-05
1.00319455e-12
-4.61696963e-08
4.884211585e-05
-4.048388351e-08
-4.616996442e-08
4.884211596e-05
1.654530887e-08
-4.858596943e-08
4.88280931e-05
-2.321816377e-08
-4.618892126e-08
4.884143152e-05
-6.428725915e-08
-4.618327693e-08
4.884269771e-05
-8.232560085e-09
-4.863205642e-08
4.882911945e-05
-5.028172535e-08
-4.613833527e-08
4.884369621e-05
-9.557822985e-08
-4.624415936e-08
4.884697291e-05
-6.239677064e-08
-4.859283339e-08
4.885200422e-05
-4.629799593e-08
4.873940192e-05
5.963890836e-08
1.097485043e-08
4.872706505e-05
9.799988418e-08
1.30445732e-08
4.883569009e-05
5.013768886e-08
1.08731528e-08
4.883465337e-05
5.805783001e-09
1.078759167e-08
4.88313942e-05
6.66487393e-08
1.311403279e-08
4.881303307e-05
2.310319196e-08
1.084552006e-08
4.883042849e-05
-1.922183873e-08
1.085550855e-08
4.882922833e-05
4.290425309e-08
1.308420168e-08
4.881181047e-05
7.720322496e-13
1.084100895e-08
4.88298147e-05
-4.290191591e-08
1.084084429e-08
4.882981473e-05
1.922430358e-08
1.308351961e-08
4.881180998e-05
-2.31021787e-08
1.085463689e-08
4.882922639e-05
-6.664801558e-08
1.084410362e-08
4.883042581e-05
-5.805137238e-09
1.311238733e-08
4.881302923e-05
-5.013695554e-08
1.078577185e-08
4.883138907e-05
-9.79986677e-08
1.087147252e-08
4.883464721e-05
-5.963691738e-08
1.304316955e-08
4.883568304e-05
1.09738333e-08
4.872705779e-05
6.243456777e-08
-2.680716694e-08
4.873824636e-05
9.553374893e-08
-2.686667054e-08
4.885081499e-05
5.028780281e-08
-2.684796468e-08
4.884580099e-05
8.28375668e-09
-2.682951551e-08
4.884252578e-05
6.424897125e-08
-2.682620528e-08
4.882791596e-05
2.322594185e-08
-2.681740171e-08
4.884152129e-05
-1.649141887e-08
-2.681300223e-08
4.884025391e-05
4.044346301e-08
-2.681528004e-08
4.882689205e-05
7.123944345e-13
-2.681126658e-08
4.884094025e-05
-4.044144721e-08
-2.681158061e-08
4.88409401e-05
1.649369538e-08
-2.681578573e-08
4.882689142e-05
-2.322538378e-08
-2.681381347e-08
4.884025139e-05
-6.424854801e-08
-2.681855797e-08
4.884151816e-05
-8.283469269e-09
-2.682762377e-08
4.882791165e-05
-5.028723577e-08
-2.683097324e-08
4.884252038e-05
-9.553260114e-08
-2.684933226e-08
4.884579466e-05
-6.243261195e-08
-2.68680656e-08
4.885080781e-05
-2.680788707e-08
4.87382392e-05
6.241860963e-08
-8.180609697e-08
4.875541695e-05
9.561730965e-08
-8.414986409e-08
4.886802015e-05
5.030741123e-08
-8.181164591e-08
4.886304529e-05
8.248188311e-09
-8.170781385e-08
4.885978031e-05
6.431108511e-08
-8.418425037e-08
4.884516934e-05
2.323024204e-08
-8.174963158e-08
4.885878684e-05
-1.654445017e-08
-8.175325198e-08
4.885752156e-05
4.049675155e-08
-8.413834801e-08
4.884414299e-05
5.668756224e-13
-8.173620932e-08
4.885820449e-05
-4.049467592e-08
-8.173634482e-08
4.885820432e-05
1.654655961e-08
-8.413874968e-08
4.884414216e-05
-2.322984597e-08
-8.175386673e-08
4.885751867e-05
-6.431091458e-08
-8.175052774e-08
4.885878335e-05
-8.248043194e-09
-8.418529605e-08
4.884516485e-05
-5.030695718e-08
-8.170882202e-08
4.885977495e-05
-9.561642798e-08
-8.181277894e-08
4.886303918e-05
-6.241623331e-08
-8.415034337e-08
4.886801368e-05
-8.180680641e-08
4.875541007e-05
5.961893023e-08
-3.06375037e-08
4.873314085e-05
9.801906122e-08
-2.870908513e-08
4.884180032e-05
5.016551549e-08
-3.086011971e-08
4.884076203e-05
5.837443249e-09
-3.094527401e-08
4.883750564e-05
6.666424064e-08
-2.857566482e-08
4.881914038e-05
2.312287001e-08
-3.088799421e-08
4.883654466e-05
-1.920912448e-08
-3.087352044e-08
4.883535385e-05
4.290454128e-08
-2.860615855e-08
4.881791641e-05
5.968159941e-13
-3.088844952e-08
4.883593284e-05
-4.290247616e-08
-3.088864193e-08
4.883593266e-05
1.921121929e-08
-2.860644668e-08
4.881791539e-05
-2.312253482e-08
-3.087383698e-08
4.883535073e-05
-6.666415728e-08
-3.088857958e-08
4.883654092e-05
-5.837320762e-09
-2.857633145e-08
4.881913578e-05
-5.016534534e-08
-3.09460057e-08
4.883750022e-05
-9.801764451e-08
-3.086032907e-08
4.884075637e-05
-5.96169855e-08
-2.87095555e-08
4.884179371e-05
-3.063723029e-08
4.873313498e-05
6.230004719e-08
4.866987951e-05
9.540812547e-08
4.878210148e-05
5.019999593e-08
4.877710026e-05
8.226512282e-09
4.877385113e-05
6.417842367e-08
4.875932921e-05
2.318355686e-08
4.877286071e-05
-1.650856837e-08
4.877160524e-05
4.041561871e-08
4.875831312e-05
5.486805115e-13
4.877228965e-05
-4.041331615e-08
4.877228943e-05
1.651083863e-08
4.875831212e-05
-2.318326429e-08
4.877160188e-05
-6.417830324e-08
4.877285683e-05
-8.226403366e-09
4.875932435e-05
-5.019928166e-08
4.877384563e-05
-9.540709254e-08
4.877709401e-05
-6.229735289e-08
4.878209538e-05
4.866987336e-05
8.869705905e-08
1.19805566e-07
4.839997768e-05
1.240790558e-07
1.175765053e-07
4.856718075e-05
8.101326977e-08
1.200993168e-07
4.86382648e-05
3.729246301e-08
1.201934199e-07
4.863571995e-05
8.010671638e-08
1.174688195e-07
4.853713513e-05
3.840240858e-08
1.201826954e-07
4.863262579e-05
-1.867772845e-09
1.201775441e-07
4.863004631e-05
4.06658837e-08
1.175095492e-07
4.853631613e-05
1.49016411e-12
1.201763352e-07
4.863105512e-05
-4.066303914e-08
1.201760812e-07
4.863105368e-05
1.869573679e-09
1.175090222e-07
4.85363109e-05
-3.840232672e-08
1.201768487e-07
4.863003971e-05
-8.010916407e-08
1.201818714e-07
4.863261396e-05
-3.72971397e-08
1.174679956e-07
4.853711971e-05
-8.101902685e-08
1.201927104e-07
4.86357032e-05
-1.240841336e-07
1.200987605e-07
4.863824955e-05
-8.870027092e-08
1.175761048e-07
4.856716887e-05
1.198053192e-07
4.839996948e-05
8.748440813e-08
1.492780407e-07
4.865541683e-05
1.253816261e-07
1.504969479e-07
4.880999339e-05
8.07467717e-08
1.494993766e-07
4.88950827e-05
3.580858592e-08
1.493785515e-07
4.889252918e-05
8.122147574e-08
1.502146188e-07
4.878011142e-05
3.826056443e-08
1.493322805e-07
4.88895148e-05
-3.24487157e-09
1.492755346e-07
4.888699641e-05
4.193787872e-08
1.501939241e-07
4.87791726e-05
1.313106015e-12
1.493267512e-07
4.888791467e-05
-4.193517645e-08
1.493265119e-07
4.888791321e-05
3.246633488e-09
1.501933521e-07
4.877916726e-05
-3.82605129e-08
1.492745649e-07
4.888699005e-05
-8.122387806e-08
1.493312315e-07
4.888950326e-05
-3.581313852e-08
1.502136877e-07
4.87800964e-05
-8.075238714e-08
1.493778581e-07
4.889251286e-05
-1.253865831e-07
1.494989842e-07
4.889506779e-05
-8.748750721e-08
1.504968631e-07
4.880998177e-05
1.492782108e-07
4.865540877e-05
8.913499957e-08
1.203287642e-07
4.86735301e-05
1.237445916e-07
1.197531188e-07
4.884218462e-05
8.10949347e-08
1.205337258e-07
4.891259505e-05
3.77921728e-08
1.205029609e-07
4.891003206e-05
7.968396184e-08
1.196520405e-07
4.881181973e-05
3.84222287e-08
1.204650535e-07
4.89068784e-05
-1.426924468e-09
1.204550381e-07
4.890422692e-05
4.021861899e-08
1.196394427e-07
4.881103405e-05
1.158153079e-12
1.204583107e-07
4.890529334e-05
-4.021613346e-08
1.204579841e-07
4.89052919e-05
1.42844845e-09
1.19638579e-07
4.881102898e-05
-3.842207979e-08
1.204538585e-07
4.890422017e-05
-7.968609299e-08
1.204638189e-07
4.890686709e-05
-3.779639419e-08
1.196510682e-07
4.881180526e-05
-8.110019106e-08
1.205025108e-07
4.891001643e-05
-1.237492342e-07
1.205338607e-07
4.891258079e-05
-8.913787806e-08
1.197537791e-07
4.884217349e-05
1.203297766e-07
4.867352244e-05
8.935578163e-08
7.085515631e-08
4.870783695e-05
1.236702126e-07
6.890324962e-08
4.887654882e-05
8.10670499e-08
7.124601735e-08
4.894694414e-05
3.784146782e-08
7.126414634e-08
4.894440498e-05
7.956665316e-08
6.880568403e-08
4.884625115e-05
3.838193377e-08
7.123408218e-08
4.894124564e-05
-1.358409447e-09
7.125078727e-08
4.893857106e-05
4.012119241e-08
6.88062202e-08
4.884546675e-05
9.241947545e-13
7.121545728e-08
4.89396453e-05
-4.011908339e-08
7.121509758e-08
4.893964376e-05
1.359769066e-09
6.880530427e-08
4.884546169e-05
-3.838165363e-08
7.124968199e-08
4.89385644e-05
-7.956838244e-08
7.123294815e-08
4.894123496e-05
-3.78450799e-08
6.880488875e-08
4.884623778e-05
-8.107166245e-08
7.12640353e-08
4.894439062e-05
-1.236742949e-07
7.124660968e-08
4.894693111e-05
-8.935831524e-08
6.890441409e-08
4.887653861e-05
7.085677856e-08
4.870782986e-05
8.715360961e-08
1.115462601e-07
4.860027663e-05
1.250869492e-07
1.127966048e-07
4.87549557e-05
8.061391763e-08
1.115048437e-07
4.883957219e-05
3.573484094e-08
1.114177264e-07
4.883698317e-05
8.113377653e-08
1.127066732e-07
4.87248266e-05
3.822211642e-08
1.113845817e-07
4.883394227e-05
-3.220360276e-09
1.113496068e-07
4.883139748e-05
4.190182764e-08
1.12679606e-07
4.872390951e-05
5.980585247e-13
1.113858127e-07
4.883233708e-05
-4.190019865e-08
1.113855017e-07
4.883233552e-05
3.221616208e-09
1.126788338e-07
4.872390431e-05
-3.82216878e-08
1.113486082e-07
4.883139145e-05
-8.113501358e-08
1.113836971e-07
4.883393263e-05
-3.573764037e-08
1.127064268e-07
4.872481474e-05
-8.061770011e-08
1.114183081e-07
4.883697045e-05
-1.250903486e-07
1.115064666e-07
4.883956062e-05
-8.715563761e-08
1.127990212e-07
4.875494657e-05
1.115492854e-07
4.860027033e-05
8.929200106e-08
6.560766176e-08
4.870092142e-05
1.236332016e-07
6.539880181e-08
4.886979489e-05
8.102352394e-08
6.573306107e-08
4.893994661e-05
3.779390555e-08
6.570300593e-08
4.893737928e-05
7.955620672e-08
6.534143713e-08
4.883946078e-05
3.836785594e-08
6.568095224e-08
4.893422838e-05
-1.385732864e-09
6.567874673e-08
4.893155845e-05
4.013181933e-08
6.532477661e-08
4.883866978e-05
3.473748508e-13
6.567484667e-08
4.893262818e-05
-4.013055558e-08
6.567464616e-08
4.893262672e-05
1.386848713e-09
6.532442987e-08
4.883866518e-05
-3.83671369e-08
6.567844661e-08
4.89315527e-05
-7.955664454e-08
6.568096692e-08
4.893422008e-05
-3.77957375e-08
6.534209406e-08
4.883945068e-05
-8.102610048e-08
6.570465474e-08
4.893736865e-05
-1.236356197e-07
6.573571883e-08
4.893993682e-05
-8.929329639e-08
6.540238905e-08
4.886978706e-05
6.561218245e-08
4.870091591e-05
8.929000109e-08
2.26053494e-08
4.869519392e-05
1.235959435e-07
2.09828208e-08
4.88640039e-05
8.101581056e-08
2.28657117e-08
4.893420016e-05
3.780584439e-08
2.290515418e-08
4.893163129e-05
7.9532611e-08
2.096089917e-08
4.883365353e-05
3.836544755e-08
2.289180036e-08
4.892847644e-05
-1.364064433e-09
2.2916724e-08
4.892580936e-05
4.011139838e-08
2.096219343e-08
4.883286821e-05
1.930872409e-13
2.287987937e-08
4.892687997e-05
-4.01102697e-08
2.287991842e-08
4.89268786e-05
1.365282564e-09
2.09624655e-08
4.883286412e-05
-3.836424325e-08
2.29174469e-08
4.89258043e-05
-7.953227656e-08
2.289294912e-08
4.892846947e-05
-3.780655499e-08
2.09627477e-08
4.883364531e-05
-8.101724309e-08
2.29080552e-08
4.893162258e-05
-1.235972475e-07
2.286981121e-08
4.89341921e-05
-8.929030637e-08
2.098797161e-08
4.88639973e-05
2.261150003e-08
4.869518926e-05
8.715400164e-08
6.382868244e-08
4.860028587e-05
1.250789282e-07
6.529076339e-08
4.875491103e-05
8.058983859e-08
6.371062466e-08
4.883955376e-05
3.571016376e-08
6.364242801e-08
4.883695283e-05
8.11223032e-08
6.525221409e-08
4.872477546e-05
3.82077875e-08
6.362688819e-08
4.883390925e-05
-3.231691219e-09
6.359621391e-08
4.88313645e-05
4.190127799e-08
6.523321035e-08
4.872385871e-05
2.674617945e-13
6.363299346e-08
4.883230534e-05
-4.189991281e-08
6.363354128e-08
4.883230435e-05
3.233356584e-09
6.523471463e-08
4.872385517e-05
-3.820601221e-08
6.359873914e-08
4.883136062e-05
-8.112115579e-08
6.363018786e-08
4.883390389e-05
-3.570969235e-08
6.525640652e-08
4.872476926e-05
-8.058992719e-08
6.364749752e-08
4.883694611e-05
-1.250789059e-07
6.371661988e-08
4.883954741e-05
-8.715328048e-08
6.529737443e-08
4.875490549e-05
6.383585374e-08
4.860028154e-05
8.926506441e-08
2.29208192e-08
4.869319319e-05
1.236372597e-07
2.284578232e-08
4.886206816e-05
8.100610147e-08
2.29707279e-08
4.893220004e-05
3.776127283e-08
2.296321416e-08
4.892961769e-05
7.956470425e-08
2.283697994e-08
4.883172089e-05
3.836162145e-08
2.295783099e-08
4.892646614e-05
-1.406605621e-09
2.295819215e-08
4.892380107e-05
4.014878346e-08
2.283214378e-08
4.883092908e-05
8.686306773e-13
2.29570135e-08
4.892486967e-05
-4.014624698e-08
2.295749272e-08
4.892486878e-05
1.409390463e-09
2.283341431e-08
4.883092673e-05
-3.835882777e-08
2.296023788e-08
4.892379788e-05
-7.95625465e-08
2.296032144e-08
4.892646187e-05
-3.775989531e-08
2.283993511e-08
4.883171558e-05
-8.100534735e-08
2.29667126e-08
4.892961152e-05
-1.236367607e-07
2.297483795e-08
4.89321936e-05
-8.926411611e-08
2.28504629e-08
4.88620619e-05
2.292605158e-08
4.869318736e-05
8.924846868e-08
-1.670651255e-08
4.869087589e-05
1.236445379e-07
-1.837347525e-08
4.885975047e-05
8.100515768e-08
-1.649969546e-08
4.892987636e-05
3.774828619e-08
-1.643937111e-08
4.892729025e-05
7.957493939e-08
-1.835226403e-08
4.882940048e-05
3.836134378e-08
-1.643764823e-08
4.8924138e-05
-1.414899672e-09
-1.640917549e-08
4.892147363e-05
4.016046066e-08
-1.834054265e-08
4.882860956e-05
1.355297716e-12
-1.644480953e-08
4.892254212e-05
-4.015697961e-08
-1.644465112e-08
4.892254181e-05
1.41847841e-09
-1.834012379e-08
4.882860803e-05
-3.835798772e-08
-1.640852901e-08
4.892147132e-05
-7.957231168e-08
-1.643714815e-08
4.892413443e-05
-3.774649789e-08
-1.835178486e-08
4.882939556e-05
-8.100405181e-08
-1.643863947e-08
4.892728401e-05
-1.236438205e-07
-1.649837817e-08
4.892986931e-05
-8.924752942e-08
-1.837134226e-08
4.885974294e-05
-1.670315756e-08
4.869086878e-05
8.719590674e-08
2.726764826e-08
4.859481513e-05
1.250395201e-07
2.881955584e-08
4.874938977e-05
8.058367302e-08
2.709063368e-08
4.883410256e-05
3.574238654e-08
2.703756881e-08
4.883150049e-05
8.107908511e-08
2.881610097e-08
4.871925525e-05
3.820415553e-08
2.703888773e-08
4.882845278e-05
-3.201865369e-09
2.701320104e-08
4.882591405e-05
4.186321789e-08
2.880690039e-08
4.871833214e-05
1.493867904e-12
2.704879182e-08
4.882685039e-05
-4.185948517e-08
2.704870249e-08
4.882685025e-05
3.205566287e-09
2.880659517e-08
4.871833125e-05
-3.820095233e-08
2.701266213e-08
4.882591229e-05
-8.107661659e-08
2.703789208e-08
4.882844955e-05
-3.5740622e-08
2.881480634e-08
4.87192504e-05
-8.058241788e-08
2.703630467e-08
4.883149409e-05
-1.250385078e-07
2.708981048e-08
4.883409511e-05
-8.71945672e-08
2.8819585e-08
4.874938154e-05
2.726899046e-08
4.859480686e-05
8.92575272e-08
-1.10872284e-08
4.868890774e-05
1.236517198e-07
-1.111911279e-08
4.885778908e-05
8.100732242e-08
-1.110160152e-08
4.892792294e-05
3.774881914e-08
-1.109040731e-08
4.892533692e-05
7.957677114e-08
-1.109743419e-08
4.882744248e-05
3.836170881e-08
-1.108106108e-08
4.892218385e-05
-1.417838718e-09
-1.10771095e-08
4.891952079e-05
4.016182769e-08
-1.109057909e-08
4.882664781e-05
1.411723437e-12
-1.107744756e-08
4.892058766e-05
-4.015828747e-08
-1.107769244e-08
4.892058759e-05
1.421212473e-09
-1.109136189e-08
4.882664709e-05
-3.835901557e-08
-1.107835839e-08
4.891951882e-05
-7.957482393e-08
-1.108292751e-08
4.892218037e-05
-3.774740114e-08
-1.109968435e-08
4.882743725e-05
-8.100618011e-08
-1.109273893e-08
4.892533e-05
-1.236505207e-07
-1.110354557e-08
4.892791478e-05
-8.925580638e-08
-1.112024315e-08
4.885777997e-05
-1.108713753e-08
4.868889843e-05
8.925721506e-08
-4.84984789e-08
4.868762711e-05
1.236609454e-07
-5.012612175e-08
4.885651719e-05
8.101077089e-08
-4.834736268e-08
4.892664847e-05
3.774899149e-08
-4.827455049e-08
4.892406211e-05
7.958400494e-08
-5.007404393e-08
4.882616854e-05
3.836440439e-08
-4.825420561e-08
4.892090814e-05
-1.422610026e-09
-4.821782871e-08
4.89182461e-05
4.01664985e-08
-5.005215261e-08
4.882537092e-05
1.131832869e-12
-4.825674817e-08
4.891931161e-05
-4.016354245e-08
-4.825706053e-08
4.891931143e-05
1.425387149e-09
-5.005305396e-08
4.882536995e-05
-3.836245858e-08
-4.821925158e-08
4.891824357e-05
-7.958273846e-08
-4.825621266e-08
4.892090412e-05
-3.774809986e-08
-5.007641148e-08
4.882616273e-05
-8.100984954e-08
-4.827698634e-08
4.892405458e-05
-1.236596495e-07
-4.834947724e-08
4.892663959e-05
-8.925518589e-08
-5.012748735e-08
4.885650726e-05
-4.849889523e-08
4.868761694e-05
8.712736515e-08
-5.135387199e-09
4.859672642e-05
1.251657316e-07
-3.898567255e-09
4.875141211e-05
8.060350407e-08
-5.325185279e-09
4.883601653e-05
3.566318673e-08
-5.365721954e-09
4.883341007e-05
8.119153335e-08
-3.874895467e-09
4.872129455e-05
3.821416286e-08
-5.348084238e-09
4.883037035e-05
-3.287811339e-09
-5.365534177e-09
4.882782833e-05
4.196367026e-08
-3.875667678e-09
4.872037317e-05
7.975957266e-13
-5.33602778e-09
4.882876813e-05
-4.196131763e-08
-5.336288762e-09
4.882876783e-05
3.28997114e-09
-3.87629218e-09
4.872037186e-05
-3.821290298e-08
-5.366749177e-09
4.882782523e-05
-8.119092519e-08
-5.349826123e-09
4.883036581e-05
-3.566276622e-08
-3.876825547e-09
4.872128825e-05
-8.060283549e-08
-5.367865716e-09
4.883340208e-05
-1.251643386e-07
-5.327130438e-09
4.883600717e-05
-8.712518618e-08
-3.900155e-09
4.87514016e-05
-5.136318578e-09
4.859671576e-05
8.927580538e-08
-4.229145539e-08
4.868623821e-05
1.236062762e-07
-4.243610057e-08
4.885497924e-05
8.102593001e-08
-4.240210516e-08
4.892527911e-05
3.781304332e-08
-4.237044946e-08
4.892270576e-05
7.954477815e-08
-4.235847847e-08
4.8824626e-05
3.837526931e-08
-4.234258622e-08
4.891954801e-05
-1.369416917e-09
-4.233021749e-08
4.891689595e-05
4.011922607e-08
-4.233991808e-08
4.882382678e-05
5.570626385e-13
-4.233103202e-08
4.89179521e-05
-4.011729331e-08
-4.233133646e-08
4.891795173e-05
1.371046825e-09
-4.234061372e-08
4.882382514e-05
-3.837456832e-08
-4.233133555e-08
4.891689226e-05
-7.954472968e-08
-4.234412217e-08
4.891954302e-05
-3.781307378e-08
-4.236021748e-08
4.882461942e-05
-8.102553564e-08
-4.237214891e-08
4.892269769e-05
-1.236050264e-07
-4.24036703e-08
4.892526986e-05
-8.92735093e-08
-4.243729789e-08
4.88549691e-05
-4.229229064e-08
4.86862278e-05
8.931009798e-08
-9.767618746e-08
4.872149944e-05
1.237429694e-07
-9.940260858e-08
4.889039231e-05
8.105703343e-08
-9.756406861e-08
4.896061001e-05
3.776898236e-08
-9.749369009e-08
4.895805016e-05
7.96269842e-08
-9.934879838e-08
4.886014123e-05
3.838084187e-08
-9.747162175e-08
4.895492105e-05
-1.43204296e-09
-9.743380635e-08
4.895226733e-05
4.018859387e-08
-9.933118768e-08
4.885935484e-05
3.572258512e-13
-9.747438307e-08
4.895333091e-05
-4.018692625e-08
-9.747461542e-08
4.895333041e-05
1.433359373e-09
-9.933171802e-08
4.885935316e-05
-3.838049974e-08
-9.743463021e-08
4.895226331e-05
-7.96272708e-08
-9.7472785e-08
4.895491595e-05
-3.776920091e-08
-9.935005236e-08
4.886013475e-05
-8.105684582e-08
-9.749495506e-08
4.895804242e-05
-1.237416882e-07
-9.756508833e-08
4.896060138e-05
-8.930784584e-08
-9.940353826e-08
4.889038277e-05
-9.767626827e-08
4.872149e-05
8.703305542e-08
-5.753390542e-08
4.860611706e-05
1.252567047e-07
-5.659665913e-08
4.876075843e-05
8.065418151e-08
-5.782860603e-08
4.884545212e-05
3.567249231e-08
-5.78776541e-08
4.884285571e-05
8.127776436e-08
-5.647080232e-08
4.873064563e-05
3.825262724e-08
-5.785508555e-08
4.883982371e-05
-3.316832521e-09
-5.786316575e-08
4.883730303e-05
4.20167204e-08
-5.647089861e-08
4.872971254e-05
2.61623609e-13
-5.783927515e-08
4.883822519e-05
-4.201522804e-08