/*--------------------------------*- C++ -*----------------------------------*\
  =========                 |
  \\      /  F ield         | OpenFOAM: The Open Source CFD Toolbox
   \\    /   O peration     | Website:  https://openfoam.org
    \\  /    A nd           | Version:  7
     \\/     M anipulation  |
\*---------------------------------------------------------------------------*/
FoamFile
{
    version     2.0;
    format      ascii;
    class       volScalarField::Internal;
    location    "2";
    object      steelCloud:hsTrans;
}
// * * * * * * * * * * * * * * * * * * * * * * * * * * * * * * * * * * * * * //

dimensions      [1 2 -2 0 0 0 0];

value           nonuniform List<scalar> 
10692
(
6.116960052e-05
6.12637693e-05
6.117170569e-05
6.117336984e-05
6.126840808e-05
6.117630222e-05
6.11772312e-05
6.127121849e-05
6.117805633e-05
6.117805508e-05
6.127121554e-05
6.117722863e-05
6.117630235e-05
6.126841308e-05
6.11733814e-05
6.117172428e-05
6.12637936e-05
6.116962772e-05
6.126406034e-05
6.13686788e-05
6.126616606e-05
6.12678312e-05
6.137331971e-05
6.127076309e-05
6.127169118e-05
6.137612791e-05
6.127251551e-05
6.127251439e-05
6.137612527e-05
6.127168889e-05
6.127076324e-05
6.137332424e-05
6.126784166e-05
6.126618291e-05
6.136870085e-05
6.126408501e-05
6.117251328e-05
6.126668343e-05
6.117461447e-05
6.117627532e-05
6.127131293e-05
6.117920132e-05
6.118012802e-05
6.127411672e-05
6.118095149e-05
6.118095068e-05
6.127411483e-05
6.118012646e-05
6.117920169e-05
6.127131674e-05
6.117628383e-05
6.117462802e-05
6.126670109e-05
6.117253305e-05
6.117479349e-05
6.126896558e-05
6.117689153e-05
6.117854974e-05
6.127358765e-05
6.11814706e-05
6.118239543e-05
6.127638606e-05
6.118321761e-05
6.118321725e-05
6.127638527e-05
6.118239499e-05
6.118147147e-05
6.127359083e-05
6.11785561e-05
6.117690131e-05
6.126897817e-05
6.117480758e-05
6.127039553e-05
6.137501855e-05
6.12724925e-05
6.127415032e-05
6.137963884e-05
6.127706788e-05
6.127799076e-05
6.138243206e-05
6.127881153e-05
6.127881171e-05
6.138243258e-05
6.127799175e-05
6.127706962e-05
6.137964184e-05
6.12741551e-05
6.127249928e-05
6.1375027e-05
6.127040491e-05
6.117868942e-05
6.127286202e-05
6.118078206e-05
6.118243573e-05
6.127747122e-05
6.11853474e-05
6.118626882e-05
6.128025992e-05
6.118708889e-05
6.118708963e-05
6.128026188e-05
6.118627143e-05
6.118535034e-05
6.127747459e-05
6.118243986e-05
6.118078716e-05
6.127286799e-05
6.11786959e-05
6.117983182e-05
6.127400359e-05
6.118192283e-05
6.118357513e-05
6.127860888e-05
6.118648389e-05
6.118740418e-05
6.128139441e-05
6.118822366e-05
6.118822489e-05
6.128139761e-05
6.118740822e-05
6.118648797e-05
6.127861284e-05
6.118357918e-05
6.118192721e-05
6.127400837e-05
6.117983683e-05
6.127387528e-05
6.13784964e-05
6.127596732e-05
6.127762099e-05
6.138310489e-05
6.128052991e-05
6.128144949e-05
6.138588881e-05
6.128226843e-05
6.12822699e-05
6.138589259e-05
6.128145418e-05
6.128053448e-05
6.138310904e-05
6.127762485e-05
6.127597116e-05
6.137850037e-05
6.127387932e-05
6.118066269e-05
6.127483346e-05
6.118275241e-05
6.118440368e-05
6.127943585e-05
6.118731052e-05
6.118823018e-05
6.12822195e-05
6.118904915e-05
6.118905044e-05
6.128222285e-05
6.118823436e-05
6.118731457e-05
6.127943942e-05
6.118440683e-05
6.118275535e-05
6.127483633e-05
6.118066554e-05
6.118057739e-05
6.127474795e-05
6.118266716e-05
6.118431853e-05
6.127935069e-05
6.11872259e-05
6.118814589e-05
6.128213514e-05
6.118896481e-05
6.118896572e-05
6.128213749e-05
6.118814886e-05
6.118722879e-05
6.127935318e-05
6.118432059e-05
6.118266891e-05
6.127474952e-05
6.118057888e-05
6.127369154e-05
6.137831206e-05
6.127578363e-05
6.127743751e-05
6.138292128e-05
6.128034765e-05
6.128126801e-05
6.138570705e-05
6.12820868e-05
6.12820873e-05
6.138570835e-05
6.12812697e-05
6.12803493e-05
6.138292264e-05
6.127743854e-05
6.127578434e-05
6.137831253e-05
6.127369191e-05
6.117975877e-05
6.127392954e-05
6.118184956e-05
6.118350188e-05
6.127853503e-05
6.118641155e-05
6.11873325e-05
6.128132205e-05
6.118815163e-05
6.118815181e-05
6.128132253e-05
6.118733314e-05
6.118641216e-05
6.127853548e-05
6.118350208e-05
6.118184947e-05
6.127392921e-05
6.117975831e-05
6.117904761e-05
6.127321863e-05
6.118113926e-05
6.11827923e-05
6.127782614e-05
6.118570333e-05
6.118662471e-05
6.128061438e-05
6.11874439e-05
6.118744379e-05
6.128061409e-05
6.118662431e-05
6.118570286e-05
6.127782554e-05
6.118279148e-05
6.118113816e-05
6.127321726e-05
6.117904607e-05
6.127156295e-05
6.137618397e-05
6.127365752e-05
6.127531348e-05
6.138079903e-05
6.127822761e-05
6.127914922e-05
6.138358835e-05
6.127996803e-05
6.127996753e-05
6.138358699e-05
6.127914737e-05
6.127822552e-05
6.138079675e-05
6.127531087e-05
6.127365449e-05
6.137618054e-05
6.127155924e-05
6.117709227e-05
6.127126288e-05
6.117918589e-05
6.118084048e-05
6.127587471e-05
6.118375412e-05
6.118467607e-05
6.127866458e-05
6.118549457e-05
6.118549349e-05
6.127866168e-05
6.118467212e-05
6.118374968e-05
6.127586987e-05
6.118083507e-05
6.117917971e-05
6.127125599e-05
6.117708495e-05
6.117605125e-05
6.127022093e-05
6.117814578e-05
6.117980108e-05
6.127483468e-05
6.118271579e-05
6.118363787e-05
6.12776249e-05
6.118445563e-05
6.118445387e-05
6.127762018e-05
6.118363147e-05
6.118270859e-05
6.127482685e-05
6.117979233e-05
6.117813584e-05
6.127020987e-05
6.117603957e-05
6.126864046e-05
6.137325924e-05
6.127073764e-05
6.127239561e-05
6.137787984e-05
6.127531286e-05
6.127623489e-05
6.138067031e-05
6.127705181e-05
6.127704947e-05
6.138066405e-05
6.127622642e-05
6.127530331e-05
6.137786942e-05
6.127238399e-05
6.127072444e-05
6.137324457e-05
6.126862502e-05
6.117476224e-05
6.126893117e-05
6.117685785e-05
6.117851396e-05
6.127354717e-05
6.118142988e-05
6.118235206e-05
6.127633764e-05
6.118316885e-05
6.118316624e-05
6.127633065e-05
6.118234253e-05
6.118141909e-05
6.127353536e-05
6.117850077e-05
6.117684288e-05
6.126891456e-05
6.117474475e-05
6.026879977e-05
6.037211859e-05
6.027140059e-05
6.027345801e-05
6.037784393e-05
6.027704875e-05
6.027817125e-05
6.038124859e-05
6.027915933e-05
6.027915824e-05
6.038124607e-05
6.027816919e-05
6.027704921e-05
6.037784876e-05
6.027346864e-05
6.027141741e-05
6.03721404e-05
6.026882408e-05
6.037247894e-05
6.049056083e-05
6.037508103e-05
6.037714044e-05
6.049629081e-05
6.038073128e-05
6.038185276e-05
6.049969305e-05
6.038283987e-05
6.038283888e-05
6.049969078e-05
6.038185092e-05
6.038073171e-05
6.049629518e-05
6.037715007e-05
6.037509628e-05
6.049058063e-05
6.037250099e-05
6.0272402e-05
6.037572337e-05
6.027499778e-05
6.027705104e-05
6.038143711e-05
6.028063405e-05
6.028175389e-05
6.038483396e-05
6.028273994e-05
6.028273924e-05
6.038483236e-05
6.028175268e-05
6.028063462e-05
6.038144077e-05
6.027705885e-05
6.027501001e-05
6.037573919e-05
6.027241964e-05
6.027522457e-05
6.037854942e-05
6.027781635e-05
6.027986631e-05
6.03842539e-05
6.028344312e-05
6.02845608e-05
6.038764446e-05
6.028554528e-05
6.028554498e-05
6.038764384e-05
6.028456055e-05
6.028344407e-05
6.038425693e-05
6.027987213e-05
6.027782516e-05
6.037856067e-05
6.027523711e-05
6.03803078e-05
6.049839811e-05
6.038289882e-05
6.038494907e-05
6.050410243e-05
6.038852265e-05
6.038963811e-05
6.050748712e-05
6.039062087e-05
6.039062105e-05
6.050748767e-05
6.038963912e-05
6.038852435e-05
6.050410524e-05
6.038495345e-05
6.038290491e-05
6.049840564e-05
6.038031613e-05
6.028000095e-05
6.038332726e-05
6.028258594e-05
6.028463028e-05
6.038901591e-05
6.028819617e-05
6.028930997e-05
6.039239523e-05
6.029029183e-05
6.029029253e-05
6.039239708e-05
6.028931244e-05
6.028819895e-05
6.038901906e-05
6.028463407e-05
6.028259054e-05
6.03833326e-05
6.028000672e-05
6.028138063e-05
6.038470591e-05
6.028396361e-05
6.028600628e-05
6.039038984e-05
6.028956879e-05
6.029068131e-05
6.039376556e-05
6.029166245e-05
6.029166361e-05
6.039376857e-05
6.02906851e-05
6.028957262e-05
6.039039354e-05
6.028601003e-05
6.028396761e-05
6.038471024e-05
6.028138514e-05
6.038452259e-05
6.050261067e-05
6.038710747e-05
6.038915267e-05
6.050830066e-05
6.039271612e-05
6.039382787e-05
6.051167473e-05
6.039480835e-05
6.039480973e-05
6.051167829e-05
6.039383227e-05
6.039272043e-05
6.050830457e-05
6.038915629e-05
6.038711104e-05
6.050261431e-05
6.038452626e-05
6.028236597e-05
6.038568994e-05
6.028494735e-05
6.028698878e-05
6.039137034e-05
6.029054899e-05
6.029166078e-05
6.039474387e-05
6.029264133e-05
6.029264255e-05
6.039474703e-05
6.029166474e-05
6.029055286e-05
6.039137378e-05
6.028699179e-05
6.028495012e-05
6.03856926e-05
6.028236856e-05
6.028225707e-05
6.038558072e-05
6.02848385e-05
6.028688002e-05
6.039126147e-05
6.029044077e-05
6.02915529e-05
6.039463581e-05
6.029253343e-05
6.029253428e-05
6.039463804e-05
6.029155576e-05
6.029044361e-05
6.039126396e-05
6.02868821e-05
6.028484022e-05
6.038558219e-05
6.028225842e-05
6.038428387e-05
6.050237101e-05
6.038686878e-05
6.038891416e-05
6.050806168e-05
6.039247881e-05
6.039359134e-05
6.051143764e-05
6.039457176e-05
6.039457224e-05
6.051143893e-05
6.039359306e-05
6.039248057e-05
6.050806319e-05
6.038891532e-05
6.038686955e-05
6.050237147e-05
6.038428417e-05
6.028126751e-05
6.038459134e-05
6.028385018e-05
6.02858928e-05
6.039027526e-05
6.028945609e-05
6.029056926e-05
6.039365243e-05
6.029155015e-05
6.029155035e-05
6.0393653e-05
6.029057006e-05
6.028945694e-05
6.039027596e-05
6.02858932e-05
6.028385019e-05
6.038459102e-05
6.028126701e-05
6.028040699e-05
6.038373106e-05
6.028299072e-05
6.028503422e-05
6.038941745e-05
6.028859915e-05
6.028971285e-05
6.039279615e-05
6.029069393e-05
6.029069388e-05
6.039279604e-05
6.028971274e-05
6.028859904e-05
6.03894172e-05
6.028503366e-05
6.028298974e-05
6.038372971e-05
6.02804054e-05
6.038170322e-05
6.049979079e-05
6.038429125e-05
6.03863392e-05
6.050548867e-05
6.038990869e-05
6.039102275e-05
6.050886905e-05
6.039200358e-05
6.039200319e-05
6.050886801e-05
6.039102135e-05
6.038990711e-05
6.050548686e-05
6.038633694e-05
6.038428839e-05
6.049978739e-05
6.038169946e-05
6.027801745e-05
6.038134067e-05
6.02806038e-05
6.028264938e-05
6.038703282e-05
6.028621782e-05
6.028733238e-05
6.039041406e-05
6.028831316e-05
6.028831225e-05
6.039041163e-05
6.028732907e-05
6.028621406e-05
6.038702861e-05
6.028264442e-05
6.028059788e-05
6.038133387e-05
6.027801013e-05
6.027673379e-05
6.038005545e-05
6.027932144e-05
6.028136802e-05
6.038575037e-05
6.028493805e-05
6.02860529e-05
6.038913248e-05
6.028703319e-05
6.028703166e-05
6.038912839e-05
6.028604737e-05
6.028493176e-05
6.038574334e-05
6.028135988e-05
6.027931185e-05
6.038004455e-05
6.027672218e-05
6.037810541e-05
6.049618916e-05
6.038069711e-05
6.038274792e-05
6.05018949e-05
6.038632194e-05
6.03874369e-05
6.05052779e-05
6.038841647e-05
6.038841442e-05
6.050527241e-05
6.038742947e-05
6.03863135e-05
6.050188545e-05
6.038273702e-05
6.038068436e-05
6.049617472e-05
6.03780901e-05
6.027514501e-05
6.037846545e-05
6.027773421e-05
6.027978198e-05
6.038416364e-05
6.028335385e-05
6.028446902e-05
6.038754667e-05
6.028544861e-05
6.028544633e-05
6.038754053e-05
6.028446064e-05
6.028334426e-05
6.038415288e-05
6.027976959e-05
6.027771975e-05
6.037844912e-05
6.02751277e-05
5.826192325e-05
5.835125635e-05
5.826552344e-05
5.826837496e-05
5.835917372e-05
5.827328971e-05
5.827479958e-05
5.836376907e-05
5.827611281e-05
5.827611209e-05
5.83637675e-05
5.827479861e-05
5.82732909e-05
5.835917833e-05
5.826838385e-05
5.826553675e-05
5.835127317e-05
5.826194185e-05
5.835175625e-05
5.845102508e-05
5.83553593e-05
5.835821493e-05
5.84589522e-05
5.83631311e-05
5.836463978e-05
5.846354497e-05
5.836595172e-05
5.836595107e-05
5.846354357e-05
5.836463893e-05
5.83631322e-05
5.845895637e-05
5.835822296e-05
5.835537134e-05
5.845104032e-05
5.835177309e-05
5.826691552e-05
5.835625375e-05
5.827050834e-05
5.82733539e-05
5.836415452e-05
5.827825799e-05
5.82797644e-05
5.836873954e-05
5.828107483e-05
5.828107438e-05
5.836873859e-05
5.827976392e-05
5.827825904e-05
5.836415798e-05
5.82733604e-05
5.8270518e-05
5.835626593e-05
5.826692899e-05
5.827083326e-05
5.836017821e-05
5.827442025e-05
5.827726105e-05
5.836806575e-05
5.828215666e-05
5.82836603e-05
5.837264254e-05
5.828496857e-05
5.828496842e-05
5.837264228e-05
5.828366046e-05
5.828215785e-05
5.836806854e-05
5.827726588e-05
5.827442721e-05
5.836018689e-05
5.827084284e-05
5.836259831e-05
5.846188346e-05
5.836618524e-05
5.836902773e-05
5.846977401e-05
5.837392037e-05
5.837542134e-05
5.847434388e-05
5.837672727e-05
5.837672747e-05
5.847434449e-05
5.83754224e-05
5.837392203e-05
5.846977652e-05
5.836903136e-05
5.836619007e-05
5.846188929e-05
5.83626047e-05
5.827737981e-05
5.83667284e-05
5.828095703e-05
5.828378988e-05
5.837459372e-05
5.828867089e-05
5.829016964e-05
5.837915608e-05
5.829147425e-05
5.829147485e-05
5.837915769e-05
5.829017181e-05
5.828867334e-05
5.837459645e-05
5.828379304e-05
5.828096073e-05
5.836673259e-05
5.827738429e-05
5.82792339e-05
5.83685812e-05
5.828280829e-05
5.828563885e-05
5.837644007e-05
5.829051547e-05
5.829201269e-05
5.838099798e-05
5.829331625e-05
5.829331721e-05
5.838100049e-05
5.82920159e-05
5.829051877e-05
5.837644326e-05
5.828564201e-05
5.828281157e-05
5.836858466e-05
5.827923745e-05
5.836828457e-05
5.846756727e-05
5.837186282e-05
5.837469829e-05
5.847543809e-05
5.837957769e-05
5.838107412e-05
5.847999468e-05
5.838237683e-05
5.838237796e-05
5.847999762e-05
5.838107784e-05
5.837958141e-05
5.847544151e-05
5.837470142e-05
5.837186581e-05
5.846757022e-05
5.836828751e-05
5.828052623e-05
5.836987164e-05
5.828409842e-05
5.828692726e-05
5.837772569e-05
5.829180082e-05
5.829329709e-05
5.838228073e-05
5.829459988e-05
5.829460089e-05
5.83822834e-05
5.829330051e-05
5.829180428e-05
5.837772883e-05
5.828692999e-05
5.828410084e-05
5.836987386e-05
5.828052834e-05
5.828036963e-05
5.836971449e-05
5.828394188e-05
5.828677083e-05
5.83775689e-05
5.82916449e-05
5.829314148e-05
5.838212472e-05
5.829444432e-05
5.829444506e-05
5.838212669e-05
5.829314411e-05
5.829164764e-05
5.837757139e-05
5.82867729e-05
5.828394351e-05
5.836971577e-05
5.828037074e-05
5.836793434e-05
5.846721545e-05
5.837151262e-05
5.837434827e-05
5.847508692e-05
5.837922877e-05
5.838072592e-05
5.847964528e-05
5.838202874e-05
5.83820292e-05
5.847964654e-05
5.838072769e-05
5.837923071e-05
5.847508871e-05
5.837434966e-05
5.837151349e-05
5.846721588e-05
5.836793454e-05
5.827903804e-05
5.836838293e-05
5.828261196e-05
5.828544234e-05
5.837624144e-05
5.829031949e-05
5.829181726e-05
5.838080062e-05
5.829312077e-05
5.829312102e-05
5.838080133e-05
5.829181834e-05
5.829032074e-05
5.837624259e-05
5.828544309e-05
5.828261216e-05
5.836838264e-05
5.827903747e-05
5.827787821e-05
5.836722329e-05
5.828145363e-05
5.828428523e-05
5.837508521e-05
5.828916462e-05
5.829066311e-05
5.837964651e-05
5.829196706e-05
5.829196712e-05
5.837964672e-05
5.82906635e-05
5.82891651e-05
5.837508557e-05
5.828428512e-05
5.828145287e-05
5.836722194e-05
5.82778765e-05
5.836444734e-05
5.846372851e-05
5.836803008e-05
5.837086936e-05
5.847161011e-05
5.837575649e-05
5.837725576e-05
5.84761747e-05
5.837855977e-05
5.837855957e-05
5.84761742e-05
5.837725513e-05
5.837575578e-05
5.847160911e-05
5.837086769e-05
5.836802752e-05
5.846372515e-05
5.83644435e-05
5.827461587e-05
5.836395909e-05
5.82781953e-05
5.828103009e-05
5.837182982e-05
5.828591485e-05
5.828741483e-05
5.837639557e-05
5.828871927e-05
5.828871869e-05
5.8376394e-05
5.82874127e-05
5.828591236e-05
5.837182675e-05
5.828102598e-05
5.827818989e-05
5.836395249e-05
5.827460861e-05
5.827284272e-05
5.836218304e-05
5.827642426e-05
5.82792607e-05
5.837005835e-05
5.828414814e-05
5.828564876e-05
5.837462606e-05
5.828695319e-05
5.828695215e-05
5.837462324e-05
5.828564489e-05
5.828414358e-05
5.837005286e-05
5.827925374e-05
5.827641546e-05
5.836217261e-05
5.827283141e-05
5.835948836e-05
5.845876242e-05
5.8363077e-05
5.836592093e-05
5.846665684e-05
5.837081561e-05
5.837231674e-05
5.847122709e-05
5.837362083e-05
5.837361939e-05
5.847122322e-05
5.837231139e-05
5.837080928e-05
5.846664928e-05
5.83659115e-05
5.836306528e-05
5.845874868e-05
5.835947356e-05
5.827065004e-05
5.835998808e-05
5.827423412e-05
5.827707256e-05
5.836786887e-05
5.82819632e-05
5.828346457e-05
5.837243887e-05
5.828476892e-05
5.828476729e-05
5.837243448e-05
5.828345845e-05
5.828195591e-05
5.836786017e-05
5.82770618e-05
5.827422084e-05
5.835997258e-05
5.827063338e-05
5.562310804e-05
5.570623468e-05
5.562821015e-05
5.563225926e-05
5.5717454e-05
5.563915793e-05
5.564124435e-05
5.572382409e-05
5.564304026e-05
5.564304003e-05
5.572382376e-05
5.564124484e-05
5.56391601e-05
5.571745838e-05
5.563226599e-05
5.562821908e-05
5.57062453e-05
5.562311952e-05
5.570694372e-05
5.579899768e-05
5.57120519e-05
5.571610986e-05
5.581023853e-05
5.572301265e-05
5.572509745e-05
5.581660547e-05
5.572689149e-05
5.572689128e-05
5.581660519e-05
5.572509792e-05
5.572301463e-05
5.581024249e-05
5.571611593e-05
5.571205994e-05
5.579900724e-05
5.570695405e-05
5.563018871e-05
5.571332559e-05
5.563527954e-05
5.563931959e-05
5.572451982e-05
5.564620268e-05
5.564828428e-05
5.573087531e-05
5.565007615e-05
5.565007603e-05
5.573087521e-05
5.564828479e-05
5.564620437e-05
5.572452305e-05
5.563932447e-05
5.563528597e-05
5.571333321e-05
5.563019694e-05
5.563575761e-05
5.571890835e-05
5.564083951e-05
5.564487233e-05
5.57300826e-05
5.565174307e-05
5.565382086e-05
5.573642657e-05
5.56556096e-05
5.565560963e-05
5.573642679e-05
5.565382157e-05
5.565174456e-05
5.57300851e-05
5.564487592e-05
5.564084414e-05
5.571891379e-05
5.563576347e-05
5.572232321e-05
5.581441129e-05
5.572740676e-05
5.573144482e-05
5.582559707e-05
5.573831344e-05
5.574038766e-05
5.583193202e-05
5.574217297e-05
5.574217321e-05
5.583193271e-05
5.574038879e-05
5.573831503e-05
5.582559917e-05
5.57314475e-05
5.572741e-05
5.581441498e-05
5.572232714e-05
5.56449546e-05
5.572811329e-05
5.565002177e-05
5.565404276e-05
5.573925464e-05
5.566089268e-05
5.566296387e-05
5.574557878e-05
5.566474725e-05
5.566474773e-05
5.574558008e-05
5.566296567e-05
5.566089471e-05
5.573925681e-05
5.56540451e-05
5.565002431e-05
5.5728116e-05
5.564495742e-05
5.564751309e-05
5.573066983e-05
5.56525761e-05
5.565659377e-05
5.574180188e-05
5.566343764e-05
5.566550685e-05
5.574812012e-05
5.566728868e-05
5.566728939e-05
5.5748122e-05
5.566550932e-05
5.566344024e-05
5.574180439e-05
5.565659616e-05
5.565257844e-05
5.573067215e-05
5.564751542e-05
5.573019852e-05
5.582228326e-05
5.573526925e-05
5.573929709e-05
5.583344045e-05
5.574614726e-05
5.574821551e-05
5.583975757e-05
5.574999609e-05
5.574999692e-05
5.583975975e-05
5.574821837e-05
5.574615022e-05
5.583344321e-05
5.573929956e-05
5.573527148e-05
5.582228533e-05
5.573020051e-05
5.564925893e-05
5.573241266e-05
5.565431881e-05
5.565833404e-05
5.57435379e-05
5.566517361e-05
5.566724152e-05
5.574985215e-05
5.566902225e-05
5.566902301e-05
5.574985418e-05
5.566724424e-05
5.56651765e-05
5.574354059e-05
5.565833636e-05
5.565432074e-05
5.573241429e-05
5.564926039e-05
5.564903062e-05
5.573218333e-05
5.565409062e-05
5.565810599e-05
5.574330902e-05
5.566494609e-05
5.566701429e-05
5.574962405e-05
5.566879516e-05
5.566879574e-05
5.574962565e-05
5.566701655e-05
5.56649486e-05
5.574331142e-05
5.565810797e-05
5.565409206e-05
5.573218433e-05
5.564903138e-05
5.572967998e-05
5.582176182e-05
5.573475083e-05
5.573877891e-05
5.583291979e-05
5.574563016e-05
5.574769907e-05
5.583923862e-05
5.574947995e-05
5.574948036e-05
5.583923978e-05
5.574770083e-05
5.574563223e-05
5.583292181e-05
5.573878048e-05
5.573475176e-05
5.582176218e-05
5.572968003e-05
5.564718984e-05
5.573034236e-05
5.565225226e-05
5.565626964e-05
5.574147374e-05
5.566311375e-05
5.566518342e-05
5.574779301e-05
5.566696538e-05
5.566696565e-05
5.574779383e-05
5.566518475e-05
5.56631154e-05
5.574147534e-05
5.565627075e-05
5.565225263e-05
5.573034207e-05
5.564718917e-05
5.56455837e-05
5.572873632e-05
5.565064834e-05
5.565466752e-05
5.57398727e-05
5.566151484e-05
5.566358554e-05
5.574619505e-05
5.56653683e-05
5.566536847e-05
5.574619557e-05
5.566358643e-05
5.566151597e-05
5.57398737e-05
5.56546679e-05
5.565064783e-05
5.572873501e-05
5.564558191e-05
5.572484056e-05
5.581692185e-05
5.572991808e-05
5.573395151e-05
5.582809475e-05
5.574081235e-05
5.574288432e-05
5.583442271e-05
5.574466752e-05
5.574466754e-05
5.583442281e-05
5.574288456e-05
5.574081263e-05
5.582809469e-05
5.573395056e-05
5.572991594e-05
5.581691864e-05
5.572483675e-05
5.564101412e-05
5.572416286e-05
5.564608503e-05
5.565010918e-05
5.573531301e-05
5.565696491e-05
5.565903805e-05
5.574164278e-05
5.566082247e-05
5.566082225e-05
5.574164222e-05
5.565903729e-05
5.565696389e-05
5.57353113e-05
5.565010617e-05
5.564608036e-05
5.572415674e-05
5.56410072e-05
5.563850372e-05
5.57216466e-05
5.564357803e-05
5.564760491e-05
5.573280423e-05
5.565446506e-05
5.565653938e-05
5.573913766e-05
5.565832447e-05
5.565832398e-05
5.573913633e-05
5.565653747e-05
5.565446254e-05
5.573280063e-05
5.564759949e-05
5.56435704e-05
5.572163703e-05
5.563849313e-05
5.571783359e-05
5.580990035e-05
5.572292062e-05
5.572696163e-05
5.582109413e-05
5.573383486e-05
5.57359102e-05
5.582743245e-05
5.573769536e-05
5.573769464e-05
5.582743047e-05
5.57359073e-05
5.573383105e-05
5.582108889e-05
5.572695416e-05
5.572291044e-05
5.580988783e-05
5.571781986e-05
5.563540445e-05
5.571854294e-05
5.564048292e-05
5.564451308e-05
5.572970963e-05
5.565137859e-05
5.565345435e-05
5.573604747e-05
5.565524021e-05
5.565523936e-05
5.573604513e-05
5.565345091e-05
5.565137407e-05
5.572970348e-05
5.564450448e-05
5.564047138e-05
5.571852888e-05
5.563538907e-05
5.264330527e-05
5.273034084e-05
5.265037354e-05
5.265598871e-05
5.274587999e-05
5.266548553e-05
5.266832803e-05
5.275457656e-05
5.267075665e-05
5.267075693e-05
5.275457753e-05
5.266833001e-05
5.266548867e-05
5.27458841e-05
5.265599329e-05
5.265037822e-05
5.273034547e-05
5.264330987e-05
5.2731323e-05
5.283033187e-05
5.273840108e-05
5.27440311e-05
5.284590768e-05
5.275353499e-05
5.275637518e-05
5.285459988e-05
5.275880109e-05
5.275880134e-05
5.285460077e-05
5.275637698e-05
5.275353785e-05
5.284591139e-05
5.27440352e-05
5.273840523e-05
5.283033594e-05
5.273132705e-05
5.265311736e-05
5.274016931e-05
5.266016847e-05
5.266576989e-05
5.275567053e-05
5.267524364e-05
5.267807927e-05
5.276434606e-05
5.268050203e-05
5.268050227e-05
5.276434684e-05
5.267808078e-05
5.267524596e-05
5.275567348e-05
5.266577312e-05
5.266017172e-05
5.274017249e-05
5.265312049e-05
5.266084307e-05
5.274791805e-05
5.266788058e-05
5.267347102e-05
5.276338904e-05
5.268292655e-05
5.268575679e-05
5.277204805e-05
5.2688175e-05
5.268817523e-05
5.277204877e-05
5.268575805e-05
5.268292833e-05
5.276339119e-05
5.267347332e-05
5.266788285e-05
5.274792024e-05
5.266084522e-05
5.275263185e-05
5.285169805e-05
5.27596725e-05
5.276527239e-05
5.286719079e-05
5.277472597e-05
5.277755118e-05
5.287583717e-05
5.277996442e-05
5.27799647e-05
5.287583796e-05
5.277755239e-05
5.277472747e-05
5.286719243e-05
5.276527404e-05
5.275967406e-05
5.285169951e-05
5.275263326e-05
5.267350567e-05
5.276059365e-05
5.268052107e-05
5.268609387e-05
5.277601575e-05
5.269551918e-05
5.269834019e-05
5.278464669e-05
5.27007506e-05
5.270075097e-05
5.278464771e-05
5.269834162e-05
5.269552076e-05
5.277601731e-05
5.268609531e-05
5.268052236e-05
5.27605948e-05
5.267350676e-05
5.267698606e-05
5.276407106e-05
5.268399538e-05
5.268956337e-05
5.277947974e-05
5.269898015e-05
5.270179845e-05
5.278810253e-05
5.270420658e-05
5.270420707e-05
5.278810384e-05
5.270180022e-05
5.269898202e-05
5.27794815e-05
5.268956491e-05
5.26839967e-05
5.27640722e-05
5.267698711e-05
5.276337174e-05
5.28624329e-05
5.277039355e-05
5.277597853e-05
5.287788411e-05
5.278540592e-05
5.278822291e-05
5.288650567e-05
5.279062922e-05
5.279062978e-05
5.288650716e-05
5.278822492e-05
5.278540805e-05
5.287788611e-05
5.277598024e-05
5.277039495e-05
5.286243405e-05
5.276337274e-05
5.267932688e-05
5.276640743e-05
5.268633179e-05
5.269189636e-05
5.278180655e-05
5.270130712e-05
5.270412357e-05
5.27904237e-05
5.270653009e-05
5.270653061e-05
5.279042511e-05
5.270412555e-05
5.270130932e-05
5.278180865e-05
5.269189811e-05
5.268633312e-05
5.276640839e-05
5.267932764e-05
5.26790064e-05
5.276608534e-05
5.268601155e-05
5.269157635e-05
5.278148516e-05
5.270098773e-05
5.270380448e-05
5.279010313e-05
5.270621122e-05
5.270621164e-05
5.279010432e-05
5.270380627e-05
5.270098985e-05
5.278148725e-05
5.269157804e-05
5.268601266e-05
5.276608595e-05
5.267900672e-05
5.276263686e-05
5.286169349e-05
5.276965905e-05
5.277524446e-05
5.287714597e-05
5.278467308e-05
5.278749074e-05
5.288576929e-05
5.278989751e-05
5.278989784e-05
5.288577027e-05
5.278749231e-05
5.278467505e-05
5.287714796e-05
5.277524599e-05
5.276965987e-05
5.286169367e-05
5.276263668e-05
5.267650015e-05
5.27635787e-05
5.268350889e-05
5.268907661e-05
5.27789867e-05
5.269849347e-05
5.270131212e-05
5.278761028e-05
5.270372048e-05
5.270372075e-05
5.278761112e-05
5.270131351e-05
5.269849525e-05
5.277898848e-05
5.268907784e-05
5.268350929e-05
5.276357836e-05
5.267649938e-05
5.267430864e-05
5.276138726e-05
5.268132069e-05
5.268689104e-05
5.27768026e-05
5.269631255e-05
5.269913268e-05
5.278543064e-05
5.270154232e-05
5.270154255e-05
5.278543135e-05
5.269913388e-05
5.269631406e-05
5.277680399e-05
5.268689173e-05
5.268132036e-05
5.276138603e-05
5.267430689e-05
5.27560247e-05
5.28550802e-05
5.276305683e-05
5.276865017e-05
5.287055474e-05
5.277809274e-05
5.27809148e-05
5.287919135e-05
5.278332533e-05
5.27833255e-05
5.287919189e-05
5.278091566e-05
5.277809373e-05
5.287055539e-05
5.276864983e-05
5.276305517e-05
5.285507736e-05
5.275602122e-05
5.266802666e-05
5.275509899e-05
5.267504822e-05
5.268062614e-05
5.277053526e-05
5.269006044e-05
5.269288436e-05
5.277917489e-05
5.269529708e-05
5.269529716e-05
5.277917512e-05
5.269288468e-05
5.26900606e-05
5.277053473e-05
5.268062419e-05
5.267504449e-05
5.275509372e-05
5.266802056e-05
5.266455248e-05
5.275161515e-05
5.267157931e-05
5.267716148e-05
5.276706308e-05
5.268660269e-05
5.268942855e-05
5.277570871e-05
5.269184276e-05
5.269184272e-05
5.277570858e-05
5.268942824e-05
5.26866019e-05
5.276706119e-05
5.267715768e-05
5.26715732e-05
5.275160703e-05
5.266454332e-05
5.274633908e-05
5.284537036e-05
5.27533859e-05
5.275899101e-05
5.28608773e-05
5.276845288e-05
5.277128042e-05
5.28695308e-05
5.277369519e-05
5.277369505e-05
5.286953036e-05
5.277127956e-05
5.276845128e-05
5.286087425e-05
5.275898564e-05
5.275337773e-05
5.28453598e-05
5.274632732e-05
5.266026707e-05
5.274732279e-05
5.266730036e-05
5.267288766e-05
5.276278485e-05
5.26823373e-05
5.268516555e-05
5.277143783e-05
5.268758156e-05
5.268758135e-05
5.277143718e-05
5.268516436e-05
5.268233521e-05
5.276278114e-05
5.267288141e-05
5.266729111e-05
5.274731099e-05
5.266025397e-05
4.929510449e-05
4.936961822e-05
4.930456717e-05
4.931207991e-05
4.939039605e-05
4.932474129e-05
4.932850721e-05
4.940193222e-05
4.933170671e-05
4.933170747e-05
4.940193439e-05
4.932851048e-05
4.932474515e-05
4.939039974e-05
4.931208252e-05
4.930456821e-05
4.936961787e-05
4.92951034e-05
4.937093189e-05
4.94534197e-05
4.938040628e-05
4.938793623e-05
4.947423911e-05
4.940060578e-05
4.940436875e-05
4.948576968e-05
4.940756465e-05
4.940756535e-05
4.948577166e-05
4.940437172e-05
4.940060927e-05
4.947424242e-05
4.938793852e-05
4.93804071e-05
4.945341922e-05
4.937093073e-05
4.930823786e-05
4.938277189e-05
4.931767506e-05
4.932516745e-05
4.940349368e-05
4.933779524e-05
4.93415514e-05
4.941499979e-05
4.934474259e-05
4.934474315e-05
4.941500138e-05
4.934155377e-05
4.933779799e-05
4.940349623e-05
4.932516915e-05
4.931767555e-05
4.938277131e-05
4.93082367e-05
4.931857217e-05
4.939313352e-05
4.932798919e-05
4.933546533e-05
4.941381066e-05
4.934806661e-05
4.935181516e-05
4.942529326e-05
4.935499989e-05
4.93550003e-05
4.942529442e-05
4.935181687e-05
4.934806854e-05
4.941381238e-05
4.933546639e-05
4.932798935e-05
4.939313289e-05
4.931857111e-05
4.93994176e-05
4.948197232e-05
4.940883659e-05
4.941632203e-05
4.950266932e-05
4.942891854e-05
4.943266038e-05
4.951413472e-05
4.94358383e-05
4.943583862e-05
4.95141356e-05
4.943266163e-05
4.942891988e-05
4.950267045e-05
4.941632266e-05
4.940883659e-05
4.948197178e-05
4.939941676e-05
4.933544616e-05
4.941002343e-05
4.934483082e-05
4.93522812e-05
4.943062938e-05
4.936483912e-05
4.936857475e-05
4.94420724e-05
4.93717484e-05
4.937174869e-05
4.944207319e-05
4.936857583e-05
4.936484024e-05
4.943063029e-05
4.935228173e-05
4.934483091e-05
4.941002313e-05
4.933544565e-05
4.934004967e-05
4.941462331e-05
4.934942565e-05
4.935686921e-05
4.943521025e-05
4.936941518e-05
4.937314708e-05
4.944664196e-05
4.937631749e-05
4.93763178e-05
4.94466428e-05
4.937314821e-05
4.936941634e-05
4.943521124e-05
4.935686988e-05
4.934942598e-05
4.941462333e-05
4.934004953e-05
4.941364589e-05
4.949619467e-05
4.942303787e-05
4.943050204e-05
4.95168325e-05
4.944306164e-05
4.94467921e-05
4.95282633e-05
4.944996015e-05
4.944996048e-05
4.952826419e-05
4.944679333e-05
4.944306295e-05
4.951683368e-05
4.943050292e-05
4.942303841e-05
4.949619492e-05
4.941364597e-05
4.934311526e-05
4.941768324e-05
4.935248522e-05
4.935992411e-05
4.943825712e-05
4.937246178e-05
4.937619108e-05
4.944968093e-05
4.937935918e-05
4.937935948e-05
4.944968179e-05
4.937619233e-05
4.937246321e-05
4.943825847e-05
4.935992515e-05
4.935248586e-05
4.941768351e-05
4.934311532e-05
4.93426852e-05
4.94172513e-05
4.935205563e-05
4.935949493e-05
4.943782634e-05
4.937203343e-05
4.937576305e-05
4.944925107e-05
4.937893141e-05
4.937893167e-05
4.944925184e-05
4.937576427e-05
4.937203492e-05
4.943782782e-05
4.935949606e-05
4.935205622e-05
4.941725141e-05
4.934268504e-05
4.94126536e-05
4.949519703e-05
4.942204647e-05
4.942951146e-05
4.951583718e-05
4.944207273e-05
4.944580388e-05
4.952726991e-05
4.944897248e-05
4.944897271e-05
4.952727061e-05
4.944580505e-05
4.944207425e-05
4.951583871e-05
4.942951258e-05
4.942204693e-05
4.949519689e-05
4.941265312e-05
4.933937034e-05
4.941393604e-05
4.934874601e-05
4.935618953e-05
4.943452283e-05
4.936873562e-05
4.937246775e-05
4.944595507e-05
4.937563835e-05
4.937563857e-05
4.944595576e-05
4.937246891e-05
4.936873712e-05
4.94345243e-05
4.935619049e-05
4.934874621e-05
4.941393553e-05
4.933936943e-05
4.933646374e-05
4.941102949e-05
4.93458442e-05
4.935329152e-05
4.943162685e-05