/*--------------------------------*- C++ -*----------------------------------*\
  =========                 |
  \\      /  F ield         | OpenFOAM: The Open Source CFD Toolbox
   \\    /   O peration     | Website:  https://openfoam.org
    \\  /    A nd           | Version:  7
     \\/     M anipulation  |
\*---------------------------------------------------------------------------*/
FoamFile
{
    version     2.0;
    format      ascii;
    class       volScalarField::Internal;
    location    "2";
    object      steelCloud:UCoeff;
}
// * * * * * * * * * * * * * * * * * * * * * * * * * * * * * * * * * * * * * //

dimensions      [1 0 0 0 0 0 0];

value           nonuniform List<scalar> 
10692
(
1.429107439e-08
1.43109339e-08
1.428985573e-08
1.428886977e-08
1.430819833e-08
1.428714459e-08
1.428658923e-08
1.430652249e-08
1.428608201e-08
1.428608146e-08
1.4306521e-08
1.428658714e-08
1.428714222e-08
1.430819587e-08
1.428886733e-08
1.428985335e-08
1.431093156e-08
1.429107208e-08
1.43105721e-08
1.433267335e-08
1.430934954e-08
1.430835918e-08
1.432992647e-08
1.430662955e-08
1.430607333e-08
1.432824775e-08
1.43055656e-08
1.43055651e-08
1.432824636e-08
1.430607138e-08
1.430662732e-08
1.432992416e-08
1.43083569e-08
1.430934731e-08
1.433267116e-08
1.431056995e-08
1.428882907e-08
1.430868201e-08
1.428760827e-08
1.428662061e-08
1.430594176e-08
1.428489265e-08
1.428433652e-08
1.430426356e-08
1.428382881e-08
1.428382838e-08
1.430426238e-08
1.428433485e-08
1.428489073e-08
1.430593976e-08
1.428661864e-08
1.428760635e-08
1.430868014e-08
1.428882723e-08
1.428700797e-08
1.430685329e-08
1.428578547e-08
1.428479643e-08
1.430410927e-08
1.428306624e-08
1.428250951e-08
1.43024292e-08
1.428200142e-08
1.428200109e-08
1.43024283e-08
1.428250821e-08
1.428306473e-08
1.430410767e-08
1.428479486e-08
1.428578395e-08
1.430685183e-08
1.428700655e-08
1.430550964e-08
1.432759145e-08
1.430428238e-08
1.430328824e-08
1.432483418e-08
1.430155244e-08
1.430099452e-08
1.432315023e-08
1.430048572e-08
1.43004855e-08
1.432314962e-08
1.430099361e-08
1.430155134e-08
1.432483301e-08
1.430328709e-08
1.43042813e-08
1.432759045e-08
1.430550869e-08
1.428376359e-08
1.430360173e-08
1.428253828e-08
1.428154699e-08
1.430085147e-08
1.427981298e-08
1.427925512e-08
1.429916802e-08
1.427874631e-08
1.42787462e-08
1.429916769e-08
1.427925458e-08
1.427981227e-08
1.43008507e-08
1.428154626e-08
1.428253765e-08
1.430360121e-08
1.428376315e-08
1.428263168e-08
1.430246868e-08
1.428140556e-08
1.428041364e-08
1.429971663e-08
1.427867846e-08
1.427812022e-08
1.429803206e-08
1.427761116e-08
1.427761114e-08
1.429803195e-08
1.427811998e-08
1.427867807e-08
1.429971619e-08
1.428041327e-08
1.428140535e-08
1.430246862e-08
1.428263171e-08
1.4302062e-08
1.432413965e-08
1.430083229e-08
1.429983618e-08
1.43213769e-08
1.429809686e-08
1.429753782e-08
1.431968962e-08
1.429702825e-08
1.429702827e-08
1.431968962e-08
1.429753772e-08
1.429809666e-08
1.432137669e-08
1.429983611e-08
1.430083242e-08
1.432413999e-08
1.430206246e-08
1.428117349e-08
1.430100937e-08
1.427994679e-08
1.42789544e-08
1.4298256e-08
1.427721833e-08
1.427665977e-08
1.429657049e-08
1.427615041e-08
1.42761504e-08
1.429657045e-08
1.427665967e-08
1.42772182e-08
1.429825596e-08
1.427895457e-08
1.427994724e-08
1.430101007e-08
1.428117434e-08
1.428073124e-08
1.430056651e-08
1.427950457e-08
1.427851221e-08
1.429781323e-08
1.42767762e-08
1.427621767e-08
1.429612775e-08
1.427570825e-08
1.427570819e-08
1.42961276e-08
1.427621749e-08
1.42767761e-08
1.429781333e-08
1.427851262e-08
1.427950534e-08
1.430056758e-08
1.428073248e-08
1.430073293e-08
1.432280898e-08
1.429950322e-08
1.429850715e-08
1.432004632e-08
1.42967679e-08
1.429620887e-08
1.431835905e-08
1.429569917e-08
1.429569908e-08
1.431835882e-08
1.429620866e-08
1.429676787e-08
1.43200466e-08
1.429850785e-08
1.429950436e-08
1.432281047e-08
1.430073461e-08
1.428038004e-08
1.430021509e-08
1.427915367e-08
1.427816158e-08
1.429746257e-08
1.427642613e-08
1.427586782e-08
1.429577773e-08
1.427535858e-08
1.427535849e-08
1.429577753e-08
1.427586769e-08
1.427642627e-08
1.429746312e-08
1.427816263e-08
1.427915524e-08
1.430021706e-08
1.428038223e-08
1.42804655e-08
1.430030089e-08
1.427923928e-08
1.427824732e-08
1.429754875e-08
1.427651217e-08
1.427595401e-08
1.429586432e-08
1.427544495e-08
1.42754449e-08
1.429586423e-08
1.427595406e-08
1.427651257e-08
1.429754963e-08
1.427824876e-08
1.427924128e-08
1.430030333e-08
1.428046817e-08
1.430096193e-08
1.432303892e-08
1.429973261e-08
1.429873689e-08
1.432027728e-08
1.429699846e-08
1.429643982e-08
1.431859113e-08
1.429593063e-08
1.429593063e-08
1.43185912e-08
1.429644012e-08
1.429699915e-08
1.432027849e-08
1.429873868e-08
1.429973496e-08
1.432304172e-08
1.430096493e-08
1.428102049e-08
1.430085715e-08
1.427979431e-08
1.427880242e-08
1.429810521e-08
1.427706751e-08
1.427650951e-08
1.429642125e-08
1.427600078e-08
1.427600085e-08
1.42964215e-08
1.427651006e-08
1.427706849e-08
1.42981067e-08
1.427880445e-08
1.427979684e-08
1.430086006e-08
1.428102359e-08
1.428137508e-08
1.430121298e-08
1.428014883e-08
1.427915687e-08
1.429846087e-08
1.427742189e-08
1.427686389e-08
1.429677693e-08
1.427635525e-08
1.427635538e-08
1.429677734e-08
1.427686468e-08
1.427742312e-08
1.429846258e-08
1.427915904e-08
1.42801514e-08
1.430121586e-08
1.428137811e-08
1.430193517e-08
1.432401533e-08
1.430070565e-08
1.429970979e-08
1.43212533e-08
1.429797123e-08
1.429741263e-08
1.431956727e-08
1.429690372e-08
1.429690389e-08
1.431956782e-08
1.429741358e-08
1.429797263e-08
1.432125516e-08
1.429971204e-08
1.430070822e-08
1.432401812e-08
1.430193807e-08
1.428182213e-08
1.430166102e-08
1.428059572e-08
1.427960364e-08
1.429890859e-08
1.42778685e-08
1.427731047e-08
1.429722456e-08
1.42768019e-08
1.42768021e-08
1.429722517e-08
1.427731151e-08
1.427786999e-08
1.42989105e-08
1.427960591e-08
1.428059826e-08
1.430166375e-08
1.428182495e-08
1.43505145e-08
1.43726996e-08
1.43493209e-08
1.434835471e-08
1.437002111e-08
1.434667371e-08
1.434613649e-08
1.436839782e-08
1.434564843e-08
1.434564792e-08
1.436839645e-08
1.434613458e-08
1.434667156e-08
1.437001889e-08
1.434835252e-08
1.434931875e-08
1.437269747e-08
1.435051239e-08
1.437234478e-08
1.439772277e-08
1.437114691e-08
1.437017567e-08
1.439503121e-08
1.436848981e-08
1.436795167e-08
1.439340482e-08
1.436746306e-08
1.436746259e-08
1.439340354e-08
1.436794989e-08
1.43684878e-08
1.439502913e-08
1.437017362e-08
1.437114491e-08
1.439772079e-08
1.437234282e-08
1.434831333e-08
1.437049126e-08
1.434711737e-08
1.434614928e-08
1.436780755e-08
1.434446516e-08
1.434392706e-08
1.436618157e-08
1.434343839e-08
1.4343438e-08
1.436618049e-08
1.434392554e-08
1.434446344e-08
1.436780576e-08
1.434614752e-08
1.434711566e-08
1.437048959e-08
1.434831169e-08
1.434652614e-08
1.436869533e-08
1.434532829e-08
1.434435867e-08
1.43660074e-08
1.434267206e-08
1.434213326e-08
1.436437929e-08
1.434164412e-08
1.434164382e-08
1.436437847e-08
1.434213209e-08
1.43426707e-08
1.436600599e-08
1.434435729e-08
1.434532697e-08
1.436869405e-08
1.434652491e-08
1.436737901e-08
1.439273451e-08
1.436617594e-08
1.436520049e-08
1.439003138e-08
1.436350773e-08
1.436296764e-08
1.438839903e-08
1.436247772e-08
1.436247753e-08
1.438839848e-08
1.436296684e-08
1.436350677e-08
1.439003036e-08
1.436519951e-08
1.436617504e-08
1.439273368e-08
1.436737823e-08
1.434335039e-08
1.436551178e-08
1.434214944e-08
1.434117734e-08
1.436281698e-08
1.433948649e-08
1.433894643e-08
1.436118506e-08
1.433845644e-08
1.433845635e-08
1.436118478e-08
1.433894597e-08
1.433948589e-08
1.436281633e-08
1.434117674e-08
1.434214897e-08
1.436551141e-08
1.434335009e-08
1.434223826e-08
1.436439848e-08
1.434103645e-08
1.434006364e-08
1.436170173e-08
1.433837153e-08
1.433783107e-08
1.43600686e-08
1.433734078e-08
1.433734077e-08
1.436006853e-08
1.433783088e-08
1.433837123e-08
1.436170139e-08
1.434006339e-08
1.434103636e-08
1.436439855e-08
1.434223843e-08
1.436398615e-08
1.438933727e-08
1.436278041e-08
1.436180282e-08
1.438662816e-08
1.436010623e-08
1.435956491e-08
1.438499216e-08
1.435907411e-08
1.435907413e-08
1.438499218e-08
1.435956485e-08
1.436010609e-08
1.438662803e-08
1.436180283e-08
1.436278065e-08
1.438933772e-08
1.436398672e-08
1.434076987e-08
1.436292882e-08
1.433956742e-08
1.433859412e-08
1.436023066e-08
1.433690106e-08
1.433636026e-08
1.435859652e-08
1.433586965e-08
1.433586965e-08
1.43585965e-08
1.433636018e-08
1.433690098e-08
1.436023067e-08
1.433859436e-08
1.433956796e-08
1.436292961e-08
1.43407708e-08
1.434030414e-08
1.436246227e-08
1.433910173e-08
1.433812846e-08
1.435976421e-08
1.433643547e-08
1.433589469e-08
1.435813013e-08
1.433540404e-08
1.433540398e-08
1.435812999e-08
1.433589453e-08
1.43364354e-08
1.435976435e-08
1.433812892e-08
1.433910255e-08
1.43624634e-08
1.434030544e-08
1.436259675e-08
1.438794576e-08
1.436139103e-08
1.436041347e-08
1.438523676e-08
1.435871698e-08
1.435817569e-08
1.438360082e-08
1.435768478e-08
1.435768468e-08
1.43836006e-08
1.435817549e-08
1.435871696e-08
1.438523706e-08
1.436041419e-08
1.436139219e-08
1.438794728e-08
1.436259846e-08
1.433991396e-08
1.436207177e-08
1.433871189e-08
1.433773892e-08
1.435937456e-08
1.433604656e-08
1.433550604e-08
1.435774121e-08
1.433501559e-08
1.43350155e-08
1.435774101e-08
1.433550592e-08
1.433604671e-08
1.435937512e-08
1.433773997e-08
1.433871345e-08
1.436207374e-08
1.433991614e-08
1.433999213e-08
1.436215033e-08
1.433879023e-08
1.433781742e-08
1.435945357e-08
1.433612541e-08
1.433558505e-08
1.435782068e-08
1.433509481e-08
1.433509475e-08
1.435782059e-08
1.43355851e-08
1.43361258e-08
1.435945444e-08
1.433781884e-08
1.433879221e-08
1.436215274e-08
1.433999476e-08
1.436280226e-08
1.438815235e-08
1.436159699e-08
1.436061985e-08
1.438544454e-08
1.43589243e-08
1.435838346e-08
1.438380987e-08
1.43578931e-08
1.43578931e-08
1.438380993e-08
1.435838374e-08
1.435892498e-08
1.438544573e-08
1.436062161e-08
1.43615993e-08
1.438815509e-08
1.436280521e-08
1.434055107e-08
1.436271071e-08
1.433934924e-08
1.433837651e-08
1.43600142e-08
1.43366848e-08
1.433614462e-08
1.435838186e-08
1.433565474e-08
1.433565481e-08
1.43583821e-08
1.433614516e-08
1.433668575e-08
1.436001566e-08
1.433837849e-08
1.433935172e-08
1.436271357e-08
1.434055411e-08
1.434091222e-08
1.436307331e-08
1.433971029e-08
1.433873748e-08
1.436037661e-08
1.43370457e-08
1.433650555e-08
1.435874431e-08
1.433601577e-08
1.433601589e-08
1.435874471e-08
1.43365063e-08
1.43370469e-08
1.436037828e-08
1.433873961e-08
1.433971282e-08
1.436307614e-08
1.434091519e-08
1.436379223e-08
1.438914608e-08
1.436258673e-08
1.436160943e-08
1.438643785e-08
1.435991377e-08
1.4359373e-08
1.438480337e-08
1.435888295e-08
1.435888312e-08
1.438480388e-08
1.435937391e-08
1.435991513e-08
1.438643966e-08
1.436161163e-08
1.436258926e-08
1.438914883e-08
1.436379509e-08
1.434136754e-08
1.436352974e-08
1.434016544e-08
1.43391925e-08
1.436083269e-08
1.433750054e-08
1.433696037e-08
1.435920032e-08
1.433647066e-08
1.433647085e-08
1.435920089e-08
1.433696136e-08
1.433750198e-08
1.436083455e-08
1.433919473e-08
1.434016794e-08
1.436353243e-08
1.434137033e-08
1.440269319e-08
1.442284415e-08
1.440156326e-08
1.440065119e-08
1.442031733e-08
1.439907329e-08
1.439857495e-08
1.441880811e-08
1.439812643e-08
1.439812601e-08
1.441880698e-08
1.43985734e-08
1.439907158e-08
1.442031558e-08
1.440064946e-08
1.440156156e-08
1.442284244e-08
1.440269149e-08
1.442250633e-08
1.444492469e-08
1.442137236e-08
1.442045579e-08
1.44423863e-08
1.441887328e-08
1.441837407e-08
1.444087415e-08
1.441792502e-08
1.441792463e-08
1.44408731e-08
1.441837264e-08
1.441887168e-08
1.444238468e-08
1.442045419e-08
1.442137078e-08
1.444492312e-08
1.442250477e-08
1.440060438e-08
1.442074874e-08
1.439947166e-08
1.439855733e-08
1.441821571e-08
1.439697569e-08
1.439647626e-08
1.441670316e-08
1.439602691e-08
1.439602659e-08
1.441670228e-08
1.439647504e-08
1.439697434e-08
1.441821433e-08
1.439855598e-08
1.439947035e-08
1.442074745e-08
1.440060311e-08
1.439891159e-08
1.441904836e-08
1.439777663e-08
1.439686048e-08
1.441651034e-08
1.439527586e-08
1.439477556e-08
1.441499515e-08
1.439432558e-08
1.439432534e-08
1.44149945e-08
1.439477464e-08
1.439527482e-08
1.441650929e-08
1.439685946e-08
1.439777567e-08
1.441904744e-08
1.439891069e-08
1.441780247e-08
1.444020148e-08
1.441666238e-08
1.441574083e-08
1.443764941e-08
1.441415008e-08
1.441364848e-08
1.443612993e-08
1.441319764e-08
1.441319749e-08
1.443612952e-08
1.441364788e-08
1.441414938e-08
1.443764869e-08
1.441574017e-08
1.44166618e-08
1.444020098e-08
1.441780201e-08
1.439590123e-08
1.441603087e-08
1.439476267e-08
1.439384362e-08
1.441348482e-08
1.439225403e-08
1.439175222e-08
1.441196508e-08
1.439130113e-08
1.439130106e-08
1.44119649e-08
1.439175192e-08
1.439225363e-08
1.441348442e-08
1.439384329e-08
1.439476247e-08
1.441603079e-08
1.439590121e-08
1.439483489e-08
1.441496348e-08
1.439369534e-08
1.43927755e-08
1.441241522e-08
1.439118447e-08
1.43906822e-08
1.441089409e-08
1.439023075e-08
1.439023075e-08
1.441089408e-08
1.439068212e-08
1.439118432e-08
1.441241507e-08
1.439277546e-08
1.439369549e-08
1.441496379e-08
1.43948353e-08
1.441454005e-08
1.443693503e-08
1.441339689e-08
1.441247289e-08
1.443437611e-08
1.441087776e-08
1.441037475e-08
1.443285244e-08
1.440992283e-08
1.440992286e-08
1.443285249e-08
1.441037476e-08
1.441087774e-08
1.443437614e-08
1.441247308e-08
1.441339733e-08
1.443693569e-08
1.441454082e-08
1.439335384e-08
1.441348102e-08
1.439221358e-08
1.439129317e-08
1.441093117e-08
1.43897011e-08
1.438919847e-08
1.440940897e-08
1.438874667e-08
1.438874667e-08
1.440940896e-08
1.438919845e-08
1.43897011e-08
1.44109313e-08
1.439129354e-08
1.439221426e-08
1.441348196e-08
1.439335493e-08
1.439284449e-08
1.441297061e-08
1.439170426e-08
1.439078389e-08
1.441042087e-08
1.43891919e-08
1.438868931e-08
1.440889876e-08
1.438823749e-08
1.438823744e-08
1.440889864e-08
1.438868919e-08
1.438919189e-08
1.441042109e-08
1.439078444e-08
1.439170518e-08
1.441297184e-08
1.439284588e-08
1.441303959e-08
1.443543191e-08
1.441189645e-08
1.44109725e-08
1.443287313e-08
1.440937751e-08
1.440887457e-08
1.443134961e-08
1.440842259e-08
1.44084225e-08
1.443134941e-08
1.44088744e-08
1.440937754e-08
1.443287348e-08
1.441097327e-08
1.441189766e-08
1.443543347e-08
1.441304134e-08
1.439238002e-08
1.441250563e-08
1.43912402e-08
1.439032019e-08
1.440995692e-08
1.438872897e-08
1.438822669e-08
1.440843569e-08
1.438777513e-08
1.438777504e-08
1.440843551e-08
1.438822659e-08
1.438872913e-08
1.440995749e-08
1.439032125e-08
1.439124175e-08
1.441250758e-08
1.439238216e-08
1.439244353e-08
1.441256955e-08
1.439130393e-08
1.439038413e-08
1.441002141e-08
1.438879335e-08
1.438829126e-08
1.440850074e-08
1.438783994e-08
1.438783989e-08
1.440850066e-08
1.438829132e-08
1.438879373e-08
1.441002226e-08
1.439038551e-08
1.439130585e-08
1.441257188e-08
1.439244607e-08
1.441319787e-08
1.443559125e-08
1.441205532e-08
1.44111319e-08
1.443303399e-08
1.44095381e-08
1.440903569e-08
1.443151201e-08
1.440858436e-08
1.440858436e-08
1.443151207e-08
1.440903596e-08
1.440953874e-08
1.443303513e-08
1.441113358e-08
1.441205753e-08
1.443559387e-08
1.441320069e-08
1.439300632e-08
1.441313376e-08
1.439186683e-08
1.439094714e-08
1.441058598e-08
1.438935675e-08
1.43888549e-08
1.440906601e-08
1.4388404e-08
1.438840405e-08
1.440906622e-08
1.43888554e-08
1.438935765e-08
1.441058737e-08
1.439094903e-08
1.43918692e-08
1.441313649e-08
1.439300923e-08
1.439337617e-08
1.441350493e-08
1.439223655e-08
1.439131678e-08
1.441095692e-08
1.438972632e-08
1.438922451e-08
1.440943703e-08
1.438877372e-08
1.438877383e-08
1.440943738e-08
1.43892252e-08
1.438972743e-08
1.44109585e-08
1.439131881e-08
1.439223898e-08
1.441350764e-08
1.439337903e-08
1.441421005e-08
1.443660682e-08
1.441306721e-08
1.44121436e-08
1.443404906e-08
1.44105497e-08
1.441004742e-08
1.44325274e-08
1.440959646e-08
1.44095966e-08
1.443252786e-08
1.441004825e-08
1.441055097e-08
1.443405077e-08
1.44121457e-08
1.441306964e-08
1.443660947e-08
1.441421282e-08
1.439384394e-08
1.441397374e-08
1.43927041e-08
1.439178416e-08
1.441142528e-08
1.43901935e-08
1.438969169e-08
1.440990536e-08
1.438924099e-08
1.438924115e-08
1.440990587e-08
1.438969259e-08
1.439019484e-08
1.441142705e-08
1.439178628e-08
1.439270651e-08
1.441397635e-08
1.439384664e-08
1.44951572e-08
1.451565926e-08
1.449412657e-08
1.449329645e-08
1.451336268e-08
1.449187575e-08
1.449143554e-08
1.451202457e-08
1.449104504e-08
1.449104473e-08
1.451202375e-08
1.449143447e-08
1.44918746e-08
1.451336154e-08
1.449329532e-08
1.449412542e-08
1.451565807e-08
1.449515598e-08
1.451534739e-08
1.453816669e-08
1.451431267e-08
1.451347807e-08
1.453585855e-08
1.451205272e-08
1.45116117e-08
1.453451762e-08
1.451122068e-08
1.451122039e-08
1.453451686e-08
1.451161071e-08
1.451205166e-08
1.453585751e-08
1.451347704e-08
1.451431163e-08
1.453816561e-08
1.45153463e-08
1.449324139e-08
1.451373695e-08
1.449220739e-08
1.449137453e-08
1.451143283e-08
1.448994926e-08
1.44895077e-08
1.451009057e-08
1.448911611e-08
1.448911588e-08
1.451008996e-08
1.448950688e-08
1.448994839e-08
1.451143198e-08
1.44913737e-08
1.449220657e-08
1.451373612e-08
1.449324056e-08
1.449169053e-08
1.451217871e-08
1.449065384e-08
1.448981877e-08
1.450986854e-08
1.448838987e-08
1.448794723e-08
1.4508523e-08
1.44875548e-08
1.448755463e-08
1.450852256e-08
1.448794665e-08
1.448838924e-08
1.450986793e-08
1.448981821e-08
1.449065332e-08
1.451217822e-08
1.449169005e-08
1.451103954e-08
1.453384001e-08
1.450999746e-08
1.450915682e-08
1.453151531e-08
1.450772149e-08
1.450727749e-08
1.453016531e-08
1.450688412e-08
1.450688403e-08
1.453016507e-08
1.450727715e-08
1.450772111e-08
1.453151496e-08
1.450915655e-08
1.450999726e-08
1.453383989e-08
1.451103946e-08
1.448893719e-08
1.45094185e-08
1.448789624e-08
1.448705772e-08
1.450709878e-08
1.448562292e-08
1.448517847e-08
1.450574777e-08
1.44847846e-08
1.448478458e-08
1.450574771e-08
1.448517835e-08
1.448562278e-08
1.450709868e-08
1.448705772e-08
1.448789637e-08
1.450941875e-08
1.448893751e-08
1.448794527e-08
1.450842571e-08
1.448690318e-08
1.448606375e-08
1.450610346e-08
1.448462733e-08
1.448418235e-08
1.450475088e-08
1.448378806e-08
1.448378809e-08
1.450475094e-08
1.44841824e-08
1.448462737e-08
1.450610355e-08
1.448606399e-08
1.448690361e-08
1.450842631e-08
1.448794597e-08
1.450798982e-08
1.453078665e-08
1.450694419e-08
1.450610072e-08
1.452845405e-08
1.450466036e-08
1.450421476e-08
1.452709923e-08
1.450382008e-08
1.450382012e-08
1.452709933e-08
1.450421486e-08
1.450466048e-08
1.452845426e-08
1.450610114e-08
1.450694486e-08
1.453078755e-08
1.450799084e-08
1.448645739e-08
1.450693608e-08
1.448541449e-08
1.448457443e-08
1.450461206e-08
1.448313686e-08
1.448269151e-08
1.450325835e-08
1.448229685e-08
1.448229686e-08
1.450325837e-08
1.448269155e-08
1.448313697e-08
1.450461233e-08
1.448457497e-08
1.448541535e-08
1.450693721e-08
1.448645866e-08
1.448588828e-08
1.450636531e-08
1.448484542e-08
1.448400541e-08
1.450404142e-08
1.448256796e-08
1.448212266e-08
1.450268785e-08
1.448172801e-08
1.448172797e-08
1.450268775e-08
1.44821226e-08
1.448256803e-08
1.450404174e-08
1.448400607e-08
1.448484646e-08
1.450636666e-08
1.44858898e-08
1.450633945e-08
1.452913211e-08
1.450529385e-08
1.450445044e-08
1.45267997e-08
1.450301031e-08
1.450256484e-08
1.45254452e-08
1.450217016e-08
1.450217008e-08
1.452544502e-08
1.450256471e-08
1.450301038e-08
1.45268001e-08
1.450445127e-08
1.450529511e-08
1.452913371e-08
1.450634123e-08
1.448532181e-08
1.450579794e-08
1.448427945e-08
1.448343989e-08
1.450347532e-08
1.448200338e-08
1.448155846e-08
1.450212284e-08
1.448116416e-08
1.448116408e-08
1.450212268e-08
1.448155839e-08
1.448200356e-08
1.45034759e-08
1.448344095e-08
1.448428099e-08
1.450579985e-08
1.448532391e-08
1.448536566e-08
1.450584229e-08
1.44843236e-08
1.44834843e-08
1.450352042e-08
1.448204835e-08
1.448160367e-08
1.450216863e-08
1.448120965e-08
1.44812096e-08
1.450216856e-08
1.448160374e-08
1.448204873e-08
1.450352124e-08
1.448348563e-08
1.448432543e-08
1.45058445e-08
1.448536807e-08
1.450643397e-08
1.452922785e-08
1.450538914e-08
1.450454643e-08
1.452689741e-08
1.450310778e-08
1.450266297e-08
1.45255448e-08
1.450226908e-08
1.450226908e-08
1.452554486e-08
1.450266322e-08
1.45031084e-08
1.452689849e-08
1.450454802e-08
1.450539122e-08
1.452923031e-08
1.450643662e-08
1.448593439e-08
1.450641261e-08
1.448489247e-08
1.448405332e-08
1.450409121e-08
1.448261787e-08
1.448217351e-08
1.45027403e-08
1.448177996e-08
1.448178001e-08
1.450274048e-08
1.448217396e-08
1.448261871e-08
1.450409251e-08
1.44840551e-08
1.448489469e-08
1.450641517e-08
1.448593712e-08
1.448631699e-08
1.450679665e-08
1.44852749e-08
1.448443564e-08
1.450447494e-08
1.448300011e-08
1.44825558e-08
1.450312415e-08
1.448216239e-08
1.448216248e-08
1.450312445e-08
1.448255642e-08
1.448300113e-08
1.450447641e-08
1.448443754e-08
1.448527719e-08
1.450679921e-08
1.448631969e-08
1.450747856e-08
1.453027613e-08
1.450643335e-08
1.450559037e-08
1.452794502e-08
1.450415162e-08
1.450370699e-08
1.452659287e-08
1.450331353e-08
1.450331364e-08
1.452659326e-08
1.450370773e-08
1.450415278e-08
1.452794661e-08
1.450559235e-08
1.450643564e-08
1.453027865e-08
1.45074812e-08
1.448680186e-08
1.450728262e-08
1.448575947e-08
1.448491999e-08
1.450496033e-08
1.448348422e-08
1.448303991e-08
1.450360952e-08
1.448264661e-08
1.448264674e-08
1.450360995e-08
1.448304071e-08
1.448348544e-08
1.450496197e-08
1.448492199e-08
1.448576177e-08
1.450728511e-08
1.448680444e-08
1.460951942e-08
1.463261905e-08
1.460862958e-08
1.460791356e-08
1.463064215e-08
1.460670675e-08
1.460634211e-08
1.462952822e-08
1.460602486e-08
1.460602468e-08
1.462952775e-08
1.460634152e-08
1.460670618e-08
1.46306416e-08
1.4607913e-08
1.460862893e-08
1.463261831e-08
1.460951863e-08
1.463234268e-08
1.465877054e-08
1.463144851e-08
1.463072758e-08
1.465678086e-08
1.46295159e-08
1.462915048e-08
1.465566416e-08
1.462883272e-08
1.462883255e-08
1.465566372e-08
1.462914995e-08
1.462951539e-08
1.465678039e-08
1.463072709e-08
1.463144796e-08
1.465876991e-08
1.4632342e-08
1.46078451e-08
1.463093796e-08
1.460695127e-08
1.460623201e-08
1.462895212e-08
1.460501979e-08
1.460465353e-08
1.462783326e-08
1.460433495e-08
1.460433481e-08
1.462783292e-08
1.460465312e-08
1.46050194e-08
1.462895177e-08
1.460623166e-08
1.460695089e-08
1.463093754e-08
1.460784465e-08
1.460649023e-08
1.462957506e-08
1.460559322e-08
1.460487133e-08
1.462758203e-08
1.460365483e-08
1.460328729e-08
1.462645928e-08
1.460296767e-08
1.460296759e-08
1.462645908e-08
1.460328704e-08
1.46036546e-08
1.462758186e-08
1.460487119e-08
1.460559309e-08
1.462957493e-08
1.46064901e-08
1.462858223e-08
1.465498944e-08
1.462767938e-08
1.462695131e-08
1.465298017e-08
1.462572788e-08
1.462535894e-08
1.465185275e-08
1.462503831e-08
1.462503828e-08
1.465185268e-08
1.462535886e-08
1.462572783e-08
1.465298017e-08
1.462695139e-08
1.462767953e-08
1.465498964e-08
1.462858246e-08
1.460409465e-08
1.462717254e-08
1.46031927e-08
1.460246682e-08
1.462516847e-08
1.460124352e-08
1.46008739e-08
1.462403942e-08
1.460055258e-08
1.46005526e-08
1.462403947e-08
1.460087398e-08
1.460124363e-08
1.462516866e-08
1.460246711e-08
1.460319313e-08
1.462717308e-08
1.460409524e-08
1.460320921e-08
1.462628645e-08
1.4602306e-08
1.46015791e-08
1.462427958e-08
1.460035402e-08
1.459998383e-08
1.46231488e-08
1.459966203e-08
1.459966208e-08
1.462314894e-08
1.459998401e-08
1.460035424e-08
1.46242799e-08
1.460157958e-08
1.460230667e-08
1.46262873e-08
1.460321015e-08
1.462583993e-08
1.465224394e-08
1.462493309e-08
1.462420184e-08
1.465022582e-08
1.462297283e-08
1.462260214e-08
1.464909309e-08
1.462228003e-08
1.462228008e-08
1.464909323e-08
1.462260233e-08
1.462297309e-08
1.465022621e-08
1.462420246e-08
1.462493397e-08
1.465224505e-08
1.462584115e-08
1.460173419e-08
1.462480932e-08
1.46008301e-08
1.460010253e-08
1.462280055e-08
1.459887627e-08
1.459850572e-08
1.462166866e-08
1.459818356e-08
1.459818357e-08
1.462166871e-08
1.459850583e-08
1.459887649e-08
1.462280097e-08
1.460010323e-08
1.460083112e-08
1.462481061e-08
1.460173562e-08
1.460109975e-08
1.462417243e-08
1.460019571e-08
1.459946819e-08
1.462216382e-08
1.459824209e-08
1.459787162e-08
1.462103214e-08
1.459754949e-08
1.459754946e-08
1.462103207e-08
1.459787161e-08
1.459824224e-08
1.462216424e-08
1.459946896e-08
1.460019685e-08
1.462417387e-08
1.460110136e-08
1.462402901e-08
1.465042686e-08
1.462312223e-08
1.462239108e-08
1.464840904e-08
1.462116242e-08
1.462079193e-08
1.464727684e-08
1.462046993e-08
1.462046985e-08
1.464727669e-08
1.462079185e-08
1.462116256e-08
1.464840951e-08
1.462239196e-08
1.462312353e-08
1.465042849e-08
1.462403081e-08
1.460041747e-08
1.462348881e-08
1.459951404e-08
1.459878707e-08
1.462148174e-08
1.459756209e-08
1.459719208e-08
1.462035138e-08
1.45968704e-08
1.459687033e-08
1.462035124e-08
1.459719204e-08
1.459756232e-08
1.462148234e-08
1.459878813e-08
1.459951554e-08
1.462349066e-08
1.46004195e-08
1.460043866e-08
1.462351062e-08
1.45995356e-08
1.459880896e-08
1.462150449e-08
1.459758466e-08
1.459721493e-08
1.462037495e-08
1.459689357e-08
1.459689353e-08
1.46203749e-08
1.459721501e-08
1.459758504e-08
1.46215053e-08
1.459881024e-08
1.459953733e-08
1.462351271e-08
1.460044092e-08
1.462405005e-08
1.465044941e-08
1.462314422e-08
1.462241394e-08
1.464843403e-08
1.462118708e-08
1.462081737e-08
1.464730408e-08
1.462049627e-08
1.462049626e-08
1.464730414e-08
1.462081762e-08
1.462118767e-08
1.464843505e-08
1.462241543e-08
1.462314615e-08
1.465045169e-08
1.462405249e-08
1.460101294e-08
1.462408679e-08
1.460011004e-08
1.459938359e-08
1.462208121e-08
1.459815988e-08
1.459779051e-08
1.462095269e-08
1.459746968e-08
1.459746972e-08
1.462095286e-08
1.459779093e-08
1.459816066e-08
1.462208243e-08
1.459938524e-08
1.46001121e-08
1.462408915e-08
1.460101545e-08
1.460140933e-08
1.462448491e-08
1.460050621e-08
1.459977959e-08
1.462247892e-08
1.459855577e-08
1.459818647e-08
1.462135053e-08
1.459786578e-08
1.459786586e-08
1.462135079e-08
1.459818702e-08
1.459855671e-08
1.462248029e-08
1.459978137e-08
1.460050833e-08
1.462448729e-08
1.460141183e-08
1.46251295e-08
1.465153339e-08
1.462422317e-08
1.462349251e-08
1.464951709e-08
1.462226549e-08
1.462189599e-08
1.464838764e-08
1.462157534e-08
1.462157543e-08
1.464838797e-08
1.462189664e-08
1.462226654e-08
1.464951856e-08
1.462349436e-08
1.462422532e-08
1.465153575e-08
1.462513197e-08
1.460191214e-08
1.462498899e-08
1.460100864e-08
1.460028172e-08
1.462298223e-08
1.459905758e-08
1.459868828e-08
1.462185379e-08
1.45983677e-08
1.459836781e-08
1.462185415e-08
1.459868898e-08
1.459905869e-08
1.462298375e-08
1.46002836e-08
1.460101079e-08
1.462499133e-08
1.460191458e-08
1.467050245e-08
1.469143526e-08
1.466980452e-08
1.466924628e-08
1.468989544e-08
1.46683154e-08
1.466804119e-08
1.468905346e-08
1.466780811e-08
1.466780804e-08
1.468905329e-08
1.466804102e-08
1.466831529e-08
1.468989535e-08
1.46692461e-08
1.46698042e-08
1.46914348e-08
1.467050189e-08
1.469120537e-08
1.471448581e-08
1.469050376e-08
1.468994166e-08
1.471293596e-08
1.468900658e-08
1.468873165e-08
1.471209144e-08
1.468849806e-08
1.4688498e-08
1.47120913e-08
1.468873151e-08
1.46890065e-08
1.471293591e-08
1.468994154e-08
1.469050351e-08
1.471448543e-08
1.469120492e-08
1.466915375e-08
1.469008104e-08
1.466845128e-08
1.466788934e-08
1.468853107e-08
1.466695235e-08
1.466667632e-08
1.468768353e-08
1.466644172e-08
1.466644168e-08
1.468768344e-08
1.466667625e-08
1.466695234e-08
1.468853109e-08
1.466788932e-08
1.466845117e-08
1.469008085e-08
1.46691535e-08
1.466806907e-08
1.468899031e-08
1.466736299e-08
1.46667981e-08
1.468743225e-08
1.46658563e-08
1.466557886e-08
1.468658037e-08
1.466534309e-08
1.466534307e-08
1.468658035e-08
1.466557887e-08
1.466585638e-08
1.468743237e-08
1.466679823e-08
1.466736308e-08
1.468899036e-08
1.466806909e-08
1.468819346e-08
1.471145844e-08
1.468748204e-08
1.468691192e-08
1.470988658e-08
1.468596368e-08
1.468568486e-08
1.470903016e-08
1.468544805e-08
1.468544806e-08
1.470903022e-08
1.468568497e-08
1.468596386e-08
1.470988683e-08
1.468691221e-08
1.468748237e-08
1.471145879e-08
1.468819382e-08
1.466614606e-08
1.468706184e-08
1.466543449e-08
1.466486518e-08
1.468549157e-08
1.466391592e-08
1.466363622e-08
1.468463283e-08
1.466339858e-08
1.466339862e-08
1.468463297e-08
1.466363642e-08
1.466391619e-08
1.468549193e-08
1.466486564e-08
1.466543506e-08
1.46870625e-08
1.466614675e-08
1.466540028e-08
1.468631569e-08
1.466468737e-08
1.466411699e-08
1.468474246e-08
1.466316587e-08
1.46628856e-08
1.468388198e-08
1.466264747e-08
1.466264753e-08
1.468388215e-08
1.466288585e-08
1.466316621e-08
1.468474291e-08
1.46641176e-08
1.466468816e-08
1.468631663e-08
1.46654013e-08
1.468586065e-08
1.470912326e-08
1.468514494e-08
1.468457142e-08
1.470754198e-08
1.468361732e-08
1.468333669e-08
1.470668008e-08
1.468309836e-08
1.468309842e-08
1.470668024e-08
1.468333693e-08
1.468361766e-08
1.470754248e-08
1.468457214e-08
1.468514591e-08
1.470912444e-08
1.468586193e-08
1.466396784e-08
1.468488112e-08
1.466325404e-08
1.466268299e-08
1.468330602e-08
1.466173075e-08
1.466145016e-08
1.468244455e-08
1.466121173e-08
1.466121175e-08
1.468244462e-08
1.466145031e-08
1.466173104e-08
1.468330652e-08
1.466268377e-08
1.466325512e-08
1.468488245e-08
1.46639693e-08
1.466327289e-08
1.468418361e-08
1.466255915e-08
1.466198817e-08
1.468260872e-08
1.466103615e-08
1.466075567e-08
1.468174755e-08
1.466051732e-08
1.466051729e-08
1.468174751e-08
1.46607557e-08
1.466103636e-08
1.468260921e-08
1.4661989e-08
1.466256033e-08
1.468418507e-08
1.466327449e-08
1.468390592e-08
1.470716221e-08
1.468319032e-08
1.468261696e-08
1.470558139e-08
1.468166337e-08
1.468138304e-08
1.470472027e-08
1.468114494e-08
1.468114488e-08
1.470472016e-08
1.468138301e-08
1.468166357e-08
1.470558191e-08
1.468261787e-08
1.468319161e-08
1.470716379e-08
1.468390765e-08
1.466247426e-08
1.468338345e-08
1.466176123e-08
1.466119088e-08
1.468181034e-08
1.466024016e-08
1.465996021e-08
1.46809507e-08
1.465972239e-08
1.465972233e-08
1.468095059e-08
1.465996021e-08
1.466024042e-08
1.468181096e-08
1.466119191e-08
1.466176266e-08
1.468338519e-08
1.466247615e-08
1.466247144e-08
1.468338126e-08
1.466175886e-08
1.466118889e-08
1.468180924e-08