/*--------------------------------*- C++ -*----------------------------------*\
  =========                 |
  \\      /  F ield         | OpenFOAM: The Open Source CFD Toolbox
   \\    /   O peration     | Website:  https://openfoam.org
    \\  /    A nd           | Version:  7
     \\/     M anipulation  |
\*---------------------------------------------------------------------------*/
FoamFile
{
    version     2.0;
    format      ascii;
    class       volScalarField::Internal;
    location    "2";
    object      steelCloud:hsCoeff;
}
// * * * * * * * * * * * * * * * * * * * * * * * * * * * * * * * * * * * * * //

dimensions      [1 2 -2 -1 0 0 0];

value           nonuniform List<scalar> 
10692
(
1.947557204e-06
1.950349401e-06
1.947555763e-06
1.947554624e-06
1.950346229e-06
1.947552624e-06
1.947551993e-06
1.950344317e-06
1.94755143e-06
1.947551428e-06
1.950344312e-06
1.947551989e-06
1.947552626e-06
1.950346241e-06
1.94755465e-06
1.947555802e-06
1.950349452e-06
1.947557262e-06
1.950349209e-06
1.953450893e-06
1.950347766e-06
1.950346626e-06
1.953447717e-06
1.950344624e-06
1.950343993e-06
1.953445805e-06
1.950343431e-06
1.950343429e-06
1.953445801e-06
1.95034399e-06
1.950344626e-06
1.953447728e-06
1.950346649e-06
1.950347802e-06
1.95345094e-06
1.950349261e-06
1.947555229e-06
1.950347424e-06
1.947553788e-06
1.947552649e-06
1.950344251e-06
1.947550648e-06
1.947550016e-06
1.950342338e-06
1.947549454e-06
1.947549453e-06
1.950342335e-06
1.947550014e-06
1.94755065e-06
1.950344261e-06
1.947552668e-06
1.947553817e-06
1.950347462e-06
1.947555271e-06
1.947553682e-06
1.950345875e-06
1.947552241e-06
1.947551103e-06
1.950342703e-06
1.947549101e-06
1.947548469e-06
1.950340788e-06
1.947547906e-06
1.947547906e-06
1.950340787e-06
1.947548469e-06
1.947549104e-06
1.950342711e-06
1.947551118e-06
1.947552263e-06
1.950345903e-06
1.947553713e-06
1.950344911e-06
1.953446591e-06
1.950343469e-06
1.95034233e-06
1.953443415e-06
1.950340325e-06
1.950339692e-06
1.953441499e-06
1.950339131e-06
1.950339131e-06
1.9534415e-06
1.950339695e-06
1.95034033e-06
1.953443423e-06
1.950342341e-06
1.950343485e-06
1.953446611e-06
1.950344932e-06
1.947551038e-06
1.95034323e-06
1.947549598e-06
1.947548459e-06
1.950340057e-06
1.947546455e-06
1.947545822e-06
1.950338139e-06
1.94754526e-06
1.947545262e-06
1.950338144e-06
1.947545828e-06
1.947546463e-06
1.950340065e-06
1.947548469e-06
1.94754961e-06
1.950343244e-06
1.947551053e-06
1.947550262e-06
1.950342454e-06
1.947548822e-06
1.947547684e-06
1.950339282e-06
1.947545679e-06
1.947545045e-06
1.950337363e-06
1.947544484e-06
1.947544487e-06
1.95033737e-06
1.947545054e-06
1.947545689e-06
1.950339291e-06
1.947547694e-06
1.947548833e-06
1.950342465e-06
1.947550274e-06
1.95034255e-06
1.95344423e-06
1.950341109e-06
1.950339969e-06
1.953441054e-06
1.950337963e-06
1.950337329e-06
1.953439135e-06
1.950336768e-06
1.950336771e-06
1.953439143e-06
1.950337339e-06
1.950337973e-06
1.953441063e-06
1.950339978e-06
1.950341117e-06
1.953444239e-06
1.950342559e-06
1.947549702e-06
1.950341895e-06
1.947548263e-06
1.947547125e-06
1.950338723e-06
1.947545121e-06
1.947544486e-06
1.950336805e-06
1.947543926e-06
1.947543928e-06
1.950336811e-06
1.947544495e-06
1.947545129e-06
1.950338731e-06
1.947547132e-06
1.947548269e-06
1.950341901e-06
1.947549708e-06
1.947549764e-06
1.950341957e-06
1.947548324e-06
1.947547187e-06
1.950338786e-06
1.947545184e-06
1.94754455e-06
1.950336869e-06
1.947543989e-06
1.947543991e-06
1.950336874e-06
1.947544556e-06
1.94754519e-06
1.950338791e-06
1.947547191e-06
1.947548328e-06
1.95034196e-06
1.947549767e-06
1.950342685e-06
1.953444366e-06
1.950341244e-06
1.950340105e-06
1.953441192e-06
1.950338102e-06
1.950337469e-06
1.953439277e-06
1.950336908e-06
1.950336909e-06
1.953439279e-06
1.950337473e-06
1.950338105e-06
1.953441195e-06
1.950340107e-06
1.950341246e-06
1.953444367e-06
1.950342686e-06
1.947550327e-06
1.95034252e-06
1.947548888e-06
1.947547751e-06
1.95033935e-06
1.947545749e-06
1.947545117e-06
1.950337435e-06
1.947544555e-06
1.947544555e-06
1.950337436e-06
1.947545117e-06
1.94754575e-06
1.950339351e-06
1.94754775e-06
1.947548887e-06
1.950342519e-06
1.947550325e-06
1.947550815e-06
1.950343008e-06
1.947549376e-06
1.947548238e-06
1.950339838e-06
1.947546237e-06
1.947545604e-06
1.950337923e-06
1.947545042e-06
1.947545042e-06
1.950337922e-06
1.947545603e-06
1.947546235e-06
1.950339836e-06
1.947548235e-06
1.947549372e-06
1.950343004e-06
1.94755081e-06
1.950344147e-06
1.953445828e-06
1.950342706e-06
1.950341567e-06
1.953442654e-06
1.950339564e-06
1.950338931e-06
1.953440738e-06
1.950338367e-06
1.950338366e-06
1.953440734e-06
1.950338927e-06
1.950339559e-06
1.953442648e-06
1.95034156e-06
1.950342698e-06
1.953445819e-06
1.950344138e-06
1.947552163e-06
1.950344357e-06
1.947550723e-06
1.947549585e-06
1.950341185e-06
1.947547582e-06
1.947546948e-06
1.950339266e-06
1.947546382e-06
1.94754638e-06
1.950339259e-06
1.947546939e-06
1.947547572e-06
1.950341173e-06
1.947549572e-06
1.947550708e-06
1.95034434e-06
1.947552146e-06
1.947552885e-06
1.950345079e-06
1.947551444e-06
1.947550305e-06
1.950341905e-06
1.947548301e-06
1.947547666e-06
1.950339983e-06
1.947547097e-06
1.947547093e-06
1.950339973e-06
1.947547652e-06
1.947548284e-06
1.950341887e-06
1.947550285e-06
1.947551421e-06
1.950345054e-06
1.947552858e-06
1.950346171e-06
1.953447854e-06
1.950344728e-06
1.950343587e-06
1.953444675e-06
1.95034158e-06
1.950340944e-06
1.95344275e-06
1.950340373e-06
1.950340369e-06
1.953442737e-06
1.950340926e-06
1.950341559e-06
1.953444651e-06
1.950343561e-06
1.950344699e-06
1.953447821e-06
1.950346137e-06
1.947553779e-06
1.950345974e-06
1.947552337e-06
1.947551198e-06
1.950342798e-06
1.947549191e-06
1.947548555e-06
1.950340871e-06
1.947547982e-06
1.947547977e-06
1.950340856e-06
1.947548534e-06
1.947549167e-06
1.950342771e-06
1.947551168e-06
1.947552304e-06
1.950345937e-06
1.94755374e-06
1.951041212e-06
1.954143808e-06
1.951039432e-06
1.951038025e-06
1.954139893e-06
1.951035574e-06
1.951034811e-06
1.954137576e-06
1.951034138e-06
1.951034136e-06
1.954137571e-06
1.951034808e-06
1.951035577e-06
1.954139905e-06
1.951038048e-06
1.951039468e-06
1.954143854e-06
1.951041264e-06
1.954143568e-06
1.957686246e-06
1.954141786e-06
1.954140377e-06
1.957682326e-06
1.954137925e-06
1.954137162e-06
1.957680009e-06
1.954136489e-06
1.954136487e-06
1.957680005e-06
1.954137159e-06
1.954137927e-06
1.957682337e-06
1.954140398e-06
1.954141819e-06
1.957686289e-06
1.954143615e-06
1.951038765e-06
1.954141358e-06
1.951036986e-06
1.95103558e-06
1.954137446e-06
1.95103313e-06
1.951032367e-06
1.954135128e-06
1.951031694e-06
1.951031693e-06
1.954135126e-06
1.951032366e-06
1.951033133e-06
1.954137455e-06
1.951035598e-06
1.951037013e-06
1.954141393e-06
1.951038803e-06
1.951036847e-06
1.954139438e-06
1.95103507e-06
1.951033664e-06
1.954135527e-06
1.951031215e-06
1.951030451e-06
1.954133209e-06
1.951029779e-06
1.951029779e-06
1.954133209e-06
1.951030452e-06
1.951031218e-06
1.954135535e-06
1.951033678e-06
1.95103509e-06
1.954139463e-06
1.951036875e-06
1.954138249e-06
1.95768092e-06
1.95413647e-06
1.954135063e-06
1.957677005e-06
1.954132612e-06
1.954131848e-06
1.957674687e-06
1.954131176e-06
1.954131177e-06
1.957674688e-06
1.954131851e-06
1.954132617e-06
1.957677013e-06
1.954135074e-06
1.954136485e-06
1.957680938e-06
1.954138268e-06
1.951033601e-06
1.95413619e-06
1.951031825e-06
1.951030421e-06
1.954132282e-06
1.951027972e-06
1.951027208e-06
1.954129963e-06
1.951026537e-06
1.951026538e-06
1.954129967e-06
1.951027214e-06
1.951027979e-06
1.95413229e-06
1.951030431e-06
1.951031837e-06
1.954136203e-06
1.951033615e-06
1.951032664e-06
1.954135253e-06
1.951030889e-06
1.951029485e-06
1.954131346e-06
1.951027036e-06
1.951026271e-06
1.954129026e-06
1.9510256e-06
1.951025603e-06
1.954129033e-06
1.951026279e-06
1.951027044e-06
1.954131355e-06
1.951029494e-06
1.951030898e-06
1.954135263e-06
1.951032674e-06
1.954135386e-06
1.957678058e-06
1.954133609e-06
1.954132203e-06
1.957674146e-06
1.954129752e-06
1.954128987e-06
1.957671826e-06
1.954128317e-06
1.95412832e-06
1.957671833e-06
1.954128997e-06
1.954129761e-06
1.957674155e-06
1.954132211e-06
1.954133617e-06
1.957678066e-06
1.954135394e-06
1.951031998e-06
1.954134588e-06
1.951030224e-06
1.95102882e-06
1.954130682e-06
1.951026372e-06
1.951025608e-06
1.954128364e-06
1.951024937e-06
1.95102494e-06
1.95412837e-06
1.951025616e-06
1.95102638e-06
1.95413069e-06
1.951028827e-06
1.95103023e-06
1.954134594e-06
1.951032004e-06
1.951032076e-06
1.954134666e-06
1.951030301e-06
1.951028898e-06
1.954130761e-06
1.951026451e-06
1.951025687e-06
1.954128444e-06
1.951025017e-06
1.951025018e-06
1.954128448e-06
1.951025693e-06
1.951026457e-06
1.954130766e-06
1.951028902e-06
1.951030305e-06
1.954134669e-06
1.951032079e-06
1.954135558e-06
1.957678231e-06
1.954133781e-06
1.954132375e-06
1.95767432e-06
1.954129927e-06
1.954129164e-06
1.957672004e-06
1.954128494e-06
1.954128495e-06
1.957672007e-06
1.954129167e-06
1.954129931e-06
1.957674323e-06
1.954132378e-06
1.954133783e-06
1.957678231e-06
1.954135558e-06
1.951032755e-06
1.954135345e-06
1.95103098e-06
1.951029577e-06
1.954131441e-06
1.951027131e-06
1.951026368e-06
1.954129125e-06
1.951025697e-06
1.951025698e-06
1.954129126e-06
1.951026369e-06
1.951027132e-06
1.954131441e-06
1.951029577e-06
1.95103098e-06
1.954135344e-06
1.951032753e-06
1.951033344e-06
1.954135934e-06
1.951031569e-06
1.951030166e-06
1.954132029e-06
1.95102772e-06
1.951026957e-06
1.954129714e-06
1.951026285e-06
1.951026285e-06
1.954129713e-06
1.951026956e-06
1.951027719e-06
1.954132028e-06
1.951030163e-06
1.951031566e-06
1.95413593e-06
1.951033339e-06
1.954137327e-06
1.95768e-06
1.954135549e-06
1.954134143e-06
1.957676088e-06
1.954131694e-06
1.954130931e-06
1.95767377e-06
1.954130258e-06
1.954130257e-06
1.957673768e-06
1.954130927e-06
1.95413169e-06
1.957676083e-06
1.954134137e-06
1.954135542e-06
1.957679991e-06
1.954137317e-06
1.951034987e-06
1.954137578e-06
1.951033211e-06
1.951031807e-06
1.95413367e-06
1.951029358e-06
1.951028594e-06
1.95413135e-06
1.951027918e-06
1.951027916e-06
1.954131345e-06
1.951028586e-06
1.951029349e-06
1.95413366e-06
1.951031794e-06
1.951033197e-06
1.954137562e-06
1.95103497e-06
1.951035873e-06
1.954138465e-06
1.951034096e-06
1.951032691e-06
1.954134555e-06
1.951030241e-06
1.951029475e-06
1.954132232e-06
1.951028797e-06
1.951028794e-06
1.954132223e-06
1.951029463e-06
1.951030226e-06
1.954134539e-06
1.951032672e-06
1.951034074e-06
1.95413844e-06
1.951035846e-06
1.954139808e-06
1.957682484e-06
1.954138029e-06
1.95413662e-06
1.957678566e-06
1.954134167e-06
1.9541334e-06
1.95767624e-06
1.95413272e-06
1.954132716e-06
1.957676228e-06
1.954133384e-06
1.954134148e-06
1.957678545e-06
1.954136595e-06
1.954138e-06
1.957682452e-06
1.954139774e-06
1.95103697e-06
1.954139563e-06
1.951035192e-06
1.951033786e-06
1.954135651e-06
1.951031334e-06
1.951030567e-06
1.954133323e-06
1.951029885e-06
1.951029881e-06
1.95413331e-06
1.951030548e-06
1.951031312e-06
1.954135626e-06
1.951033758e-06
1.95103516e-06
1.954139527e-06
1.951036932e-06
1.949577893e-06
1.952373476e-06
1.949575431e-06
1.949573482e-06
1.952368066e-06
1.949570129e-06
1.949569101e-06
1.952364937e-06
1.949568208e-06
1.949568206e-06
1.952364934e-06
1.949569101e-06
1.949570133e-06
1.952368077e-06
1.949573502e-06
1.949575461e-06
1.952373513e-06
1.949577934e-06
1.95237314e-06
1.955478571e-06
1.952370676e-06
1.952368724e-06
1.955473152e-06
1.952365368e-06
1.952364341e-06
1.955470024e-06
1.952363448e-06
1.952363447e-06
1.955470022e-06
1.952364341e-06
1.952365372e-06
1.955473163e-06
1.952368742e-06
1.952370703e-06
1.955478605e-06
1.952373178e-06
1.949574496e-06
1.952370075e-06
1.949572038e-06
1.949570091e-06
1.952364672e-06
1.949566742e-06
1.949565715e-06
1.952361546e-06
1.949564823e-06
1.949564822e-06
1.952361545e-06
1.949565716e-06
1.949566746e-06
1.952364681e-06
1.949570107e-06
1.94957206e-06
1.952370103e-06
1.949574526e-06
1.94957183e-06
1.952367404e-06
1.949569375e-06
1.949567431e-06
1.952362007e-06
1.949564084e-06
1.949563058e-06
1.952358883e-06
1.949562166e-06
1.949562166e-06
1.952358883e-06
1.94956306e-06
1.949564088e-06
1.952362015e-06
1.949567443e-06
1.949569392e-06
1.952367425e-06
1.949571853e-06
1.952365763e-06
1.955471182e-06
1.952363307e-06
1.95236136e-06
1.955465779e-06
1.952358013e-06
1.952356987e-06
1.955462656e-06
1.952356097e-06
1.952356097e-06
1.955462658e-06
1.95235699e-06
1.952358018e-06
1.955465786e-06
1.95236137e-06
1.952363319e-06
1.955471196e-06
1.952365779e-06
1.949567376e-06
1.952362948e-06
1.949564926e-06
1.949562985e-06
1.95235756e-06
1.949559643e-06
1.949558618e-06
1.952354439e-06
1.949557728e-06
1.949557729e-06
1.952354442e-06
1.949558623e-06
1.949559649e-06
1.952357567e-06
1.949562993e-06
1.949564935e-06
1.952362958e-06
1.949567388e-06
1.949566116e-06
1.952361688e-06
1.949563667e-06
1.949561727e-06
1.952356303e-06
1.949558386e-06
1.949557361e-06
1.952353182e-06
1.949556472e-06
1.949556474e-06
1.952353188e-06
1.949557368e-06
1.949558394e-06
1.95235631e-06
1.949561735e-06
1.949563675e-06
1.952361697e-06
1.949566125e-06
1.952361898e-06
1.955467317e-06
1.952359445e-06
1.952357502e-06
1.955461923e-06
1.952354158e-06
1.952353133e-06
1.955458802e-06
1.952352245e-06
1.952352247e-06
1.955458809e-06
1.952353141e-06
1.952354166e-06
1.955461931e-06
1.952357509e-06
1.952359453e-06
1.955467325e-06
1.952361905e-06
1.949565241e-06
1.952360814e-06
1.949562793e-06
1.949560854e-06
1.952355431e-06
1.949557514e-06
1.94955649e-06
1.952352313e-06
1.949555602e-06
1.949555604e-06
1.952352318e-06
1.949556497e-06
1.949557522e-06
1.952355438e-06
1.94956086e-06
1.949562799e-06
1.95236082e-06
1.949565246e-06
1.949565351e-06
1.952360924e-06
1.949562902e-06
1.949560963e-06
1.952355541e-06
1.949557625e-06
1.949556601e-06
1.952352424e-06
1.949555712e-06
1.949555714e-06
1.952352428e-06
1.949556606e-06
1.94955763e-06
1.952355547e-06
1.949560968e-06
1.949562906e-06
1.952360927e-06
1.949565353e-06
1.952362144e-06
1.955467565e-06
1.952359692e-06
1.952357749e-06
1.955462171e-06
1.952354407e-06
1.952353383e-06
1.955459054e-06
1.952352495e-06
1.952352496e-06
1.955459057e-06
1.952353387e-06
1.952354411e-06
1.955462175e-06
1.952357751e-06
1.952359693e-06
1.955467565e-06
1.952362144e-06
1.949566261e-06
1.952361835e-06
1.949563812e-06
1.949561873e-06
1.952356451e-06
1.949558535e-06
1.949557511e-06
1.952353335e-06
1.949556623e-06
1.949556623e-06
1.952353336e-06
1.949557513e-06
1.949558537e-06
1.952356453e-06
1.949561874e-06
1.949563812e-06
1.952361833e-06
1.949566259e-06
1.949567053e-06
1.952362627e-06
1.949564604e-06
1.949562664e-06
1.952357243e-06
1.949559325e-06
1.949558302e-06
1.952354125e-06
1.949557412e-06
1.949557412e-06
1.952354125e-06
1.949558302e-06
1.949559325e-06
1.952357242e-06
1.949562663e-06
1.949564601e-06
1.952362623e-06
1.949567048e-06
1.952364528e-06
1.955469949e-06
1.952362073e-06
1.952360129e-06
1.955464551e-06
1.952356785e-06
1.952355761e-06
1.955461432e-06
1.95235487e-06
1.952354869e-06
1.95546143e-06
1.952355758e-06
1.952356782e-06
1.955464548e-06
1.952360124e-06
1.952362066e-06
1.955469939e-06
1.952364517e-06
1.949569288e-06
1.952364863e-06
1.949566836e-06
1.949564895e-06
1.952359474e-06
1.949561553e-06
1.949560527e-06
1.952356352e-06
1.949559634e-06
1.949559633e-06
1.952356348e-06
1.949560522e-06
1.949561546e-06
1.952359466e-06
1.949564884e-06
1.949566823e-06
1.952364847e-06
1.94956927e-06
1.949570505e-06
1.952366082e-06
1.949568052e-06
1.94956611e-06
1.95236069e-06
1.949562765e-06
1.949561739e-06
1.952357565e-06
1.949560844e-06
1.949560841e-06
1.952357558e-06
1.94956173e-06
1.949562754e-06
1.952360677e-06
1.949566093e-06
1.949568031e-06
1.952366058e-06
1.949570479e-06
1.952367931e-06
1.955473357e-06
1.952365473e-06
1.952363526e-06
1.955467951e-06
1.952360175e-06
1.952359148e-06
1.955464822e-06
1.952358251e-06
1.952358248e-06
1.955464813e-06
1.952359136e-06
1.952360161e-06
1.955467933e-06
1.952363503e-06
1.952365446e-06
1.955473325e-06
1.952367897e-06
1.949572011e-06
1.95236759e-06
1.949569557e-06
1.949567613e-06
1.952362194e-06
1.949564266e-06
1.949563237e-06
1.952359064e-06
1.949562339e-06
1.949562336e-06
1.952359054e-06
1.949563224e-06
1.949564249e-06
1.952362174e-06
1.949567588e-06
1.949569526e-06
1.952367555e-06
1.949571973e-06
1.951408413e-06
1.954208338e-06
1.951404929e-06
1.951402166e-06
1.954200682e-06
1.951397464e-06
1.951396044e-06
1.954196347e-06
1.951394824e-06
1.951394824e-06
1.954196347e-06
1.951396047e-06
1.95139747e-06
1.954200693e-06
1.951402183e-06
1.951404951e-06
1.954208364e-06
1.95140844e-06
1.954207859e-06
1.957318337e-06
1.954204372e-06
1.954201602e-06
1.957310665e-06
1.954196896e-06
1.954195478e-06
1.957306332e-06
1.954194258e-06
1.954194258e-06
1.957306332e-06
1.95419548e-06
1.954196902e-06
1.957310676e-06
1.954201617e-06
1.954204392e-06
1.95731836e-06
1.954207885e-06
1.951403594e-06
1.954203512e-06
1.951400118e-06
1.951397359e-06
1.954195871e-06
1.951392666e-06
1.951391249e-06
1.954191543e-06
1.95139003e-06
1.95139003e-06
1.954191544e-06
1.951391251e-06
1.951392671e-06
1.95419588e-06
1.951397372e-06
1.951400134e-06
1.954203531e-06
1.951403614e-06
1.951399803e-06
1.954199712e-06
1.951396333e-06
1.951393579e-06
1.954192083e-06
1.951388892e-06
1.951387477e-06
1.95418776e-06
1.95138626e-06
1.95138626e-06
1.954187762e-06
1.951387479e-06
1.951388897e-06
1.95419209e-06
1.951393589e-06
1.951396345e-06
1.954199726e-06
1.951399819e-06
1.954197393e-06
1.957307846e-06
1.954193921e-06
1.954191163e-06
1.957300207e-06
1.954186475e-06
1.954185061e-06
1.957295889e-06
1.954183847e-06
1.954183847e-06
1.957295891e-06
1.954185065e-06
1.95418648e-06
1.957300214e-06
1.95419117e-06
1.95419393e-06
1.957307857e-06
1.954197404e-06
1.951393547e-06
1.95419345e-06
1.951390085e-06
1.951387339e-06
1.954185839e-06
1.951382662e-06
1.95138125e-06
1.954181526e-06
1.951380036e-06
1.951380037e-06
1.95418153e-06
1.951381254e-06
1.951382668e-06
1.954185846e-06
1.951387346e-06
1.951390093e-06
1.954193458e-06
1.951393555e-06
1.951391808e-06
1.954191712e-06
1.951388349e-06
1.951385604e-06
1.954184107e-06
1.951380931e-06
1.951379519e-06
1.954179796e-06
1.951378307e-06
1.951378308e-06
1.954179801e-06
1.951379525e-06
1.951380937e-06
1.954184114e-06
1.951385611e-06
1.951388356e-06
1.954191719e-06
1.951391815e-06
1.954192041e-06
1.957302496e-06
1.954188576e-06
1.954185823e-06
1.957294873e-06
1.954181145e-06
1.954179734e-06
1.957290562e-06
1.954178523e-06
1.954178525e-06
1.957290567e-06
1.954179741e-06
1.954181152e-06
1.95729488e-06
1.95418583e-06
1.954188582e-06
1.957302502e-06
1.954192046e-06
1.951390626e-06
1.954190531e-06
1.951387168e-06
1.951384424e-06
1.95418293e-06
1.951379753e-06
1.951378343e-06
1.954178622e-06
1.951377132e-06
1.951377133e-06
1.954178627e-06
1.951378349e-06
1.95137976e-06
1.954182936e-06
1.95138443e-06
1.951387173e-06
1.954190536e-06
1.951390629e-06
1.951390783e-06
1.95419069e-06
1.951387325e-06
1.951384582e-06
1.954183088e-06
1.951379911e-06
1.951378501e-06
1.954178781e-06
1.95137729e-06
1.951377291e-06
1.954178785e-06
1.951378506e-06
1.951379917e-06
1.954183093e-06
1.951384586e-06
1.951387329e-06
1.954190692e-06
1.951390785e-06
1.9541924e-06
1.957302857e-06
1.954188934e-06
1.954186182e-06
1.957295234e-06
1.954181505e-06
1.954180095e-06
1.957290926e-06
1.954178884e-06
1.954178885e-06
1.957290929e-06
1.954180098e-06
1.954181509e-06
1.957295238e-06
1.954186185e-06
1.954188936e-06
1.957302857e-06
1.954192399e-06
1.951392038e-06
1.954191945e-06
1.951388579e-06
1.951385834e-06
1.95418434e-06
1.951381163e-06
1.951379753e-06
1.954180034e-06
1.951378541e-06
1.951378542e-06
1.954180035e-06
1.951379755e-06
1.951381166e-06
1.954184343e-06
1.951385836e-06
1.951388579e-06
1.954191943e-06
1.951392036e-06
1.951393132e-06
1.954193039e-06
1.951389672e-06
1.951386926e-06
1.954185432e-06
1.951382254e-06
1.951380843e-06
1.954181124e-06
1.951379631e-06
1.951379631e-06
1.954181125e-06
1.951380844e-06
1.951382255e-06
1.954185433e-06
1.951386926e-06
1.951389669e-06
1.954193034e-06
1.951393127e-06
1.954195698e-06
1.957306156e-06
1.954192229e-06
1.954189474e-06
1.957298526e-06
1.954184793e-06
1.954183382e-06
1.957294214e-06
1.954182168e-06
1.954182168e-06
1.957294213e-06
1.954183381e-06
1.954184792e-06
1.957298524e-06
1.95418947e-06
1.954192223e-06
1.957306147e-06
1.954195688e-06
1.951396251e-06
1.954196161e-06
1.951392787e-06
1.951390039e-06
1.954188547e-06
1.951385361e-06
1.951383949e-06
1.954184232e-06
1.951382733e-06
1.951382732e-06
1.95418423e-06
1.951383946e-06
1.951385357e-06
1.954188541e-06
1.95139003e-06
1.951392775e-06
1.954196145e-06
1.951396233e-06
1.951397966e-06
1.95419788e-06
1.951394501e-06
1.951391751e-06
1.954190262e-06
1.95138707e-06
1.951385656e-06
1.954185944e-06
1.951384439e-06
1.951384437e-06
1.95418594e-06
1.951385651e-06
1.951387063e-06
1.954190252e-06
1.951391737e-06
1.951394482e-06
1.954197857e-06
1.951397941e-06
1.954200486e-06
1.957310954e-06
1.954197012e-06
1.954194253e-06
1.957303311e-06
1.954189562e-06
1.954188147e-06
1.957298988e-06
1.954186928e-06
1.954186927e-06
1.957298983e-06
1.95418814e-06
1.954189552e-06
1.957303298e-06
1.954194234e-06
1.954196987e-06
1.957310925e-06
1.954200453e-06
1.951400085e-06
1.954200002e-06
1.951396617e-06
1.951393866e-06
1.954192378e-06
1.951389181e-06
1.951387765e-06
1.954188055e-06
1.951386545e-06
1.951386543e-06
1.954188049e-06
1.951387756e-06
1.951389169e-06
1.954192363e-06
1.951393844e-06
1.95139659e-06
1.954199969e-06
1.951400049e-06
1.956327677e-06
1.95944166e-06
1.956322863e-06
1.956319038e-06
1.959431078e-06
1.956312577e-06
1.956310646e-06
1.959425169e-06
1.956308999e-06
1.956309e-06
1.959425172e-06
1.956310651e-06
1.956312585e-06
1.959431089e-06
1.956319051e-06
1.956322877e-06
1.959441674e-06
1.956327692e-06
1.959440995e-06
1.96299701e-06
1.959436174e-06
1.95943234e-06
1.962986403e-06
1.959425873e-06
1.959423944e-06
1.962980496e-06
1.959422298e-06
1.959422299e-06
1.962980499e-06
1.959423949e-06
1.959425881e-06
1.962986413e-06
1.959432352e-06
1.959436187e-06
1.962997023e-06
1.959441009e-06
1.956321007e-06
1.959434978e-06
1.956316204e-06
1.956312389e-06
1.959424422e-06
1.956305942e-06
1.956304016e-06
1.959418526e-06
1.956302372e-06
1.956302373e-06
1.959418528e-06
1.95630402e-06
1.956305949e-06
1.959424431e-06
1.956312399e-06
1.956316215e-06
1.959434989e-06
1.956321018e-06
1.956315754e-06
1.95942971e-06
1.956310961e-06
1.956307153e-06
1.959419174e-06
1.956300718e-06
1.956298795e-06
1.959413288e-06
1.956297154e-06
1.956297155e-06
1.95941329e-06
1.956298799e-06
1.956300724e-06
1.959419181e-06
1.956307161e-06
1.956310969e-06
1.959429718e-06
1.956315763e-06
1.95942651e-06
1.962982485e-06
1.959421714e-06
1.9594179e-06
1.962971934e-06
1.959411465e-06
1.959409545e-06
1.962966055e-06
1.959407907e-06
1.959407908e-06
1.962966057e-06
1.959409549e-06
1.959411471e-06
1.962971939e-06
1.959417906e-06
1.959421721e-06
1.962982492e-06
1.959426516e-06
1.956307151e-06
1.959421097e-06
1.956302372e-06
1.956298576e-06
1.959410594e-06
1.95629216e-06
1.956290242e-06
1.959404724e-06
1.956288606e-06
1.956288607e-06
1.959404727e-06
1.956290247e-06
1.956292165e-06
1.959410599e-06
1.956298582e-06
1.956302378e-06
1.959421103e-06
1.956307156e-06
1.956304789e-06
1.959418737e-06
1.956300014e-06
1.956296221e-06
1.959408242e-06
1.95628981e-06
1.956287894e-06
1.959402377e-06
1.95628626e-06
1.956286261e-06
1.959402381e-06
1.956287899e-06
1.956289816e-06
1.959408247e-06
1.956296226e-06
1.956300019e-06
1.959418742e-06
1.956304793e-06
1.95941922e-06
1.962975198e-06
1.959414436e-06
1.959410631e-06
1.962964673e-06
1.959404213e-06
1.959402297e-06
1.962958809e-06
1.959400665e-06
1.959400666e-06
1.962958813e-06
1.959402303e-06
1.959404219e-06
1.962964678e-06
1.959410637e-06
1.959414441e-06
1.962975202e-06
1.959419223e-06
1.956303204e-06
1.959417155e-06
1.956298431e-06
1.956294641e-06
1.959406665e-06
1.956288234e-06
1.956286319e-06
1.959400805e-06
1.956284686e-06
1.956284687e-06
1.959400809e-06
1.956286324e-06
1.956288239e-06
1.959406671e-06
1.956294645e-06
1.956298435e-06
1.959417158e-06
1.956303206e-06
1.956303423e-06
1.959417375e-06
1.95629865e-06
1.956294859e-06
1.959406885e-06
1.956288453e-06
1.956286538e-06
1.959401026e-06
1.956284905e-06
1.956284906e-06
1.959401029e-06
1.956286542e-06
1.956288458e-06
1.95940689e-06
1.956294863e-06
1.956298653e-06
1.959417377e-06
1.956303424e-06
1.959419723e-06
1.962975705e-06
1.959414939e-06
1.959411134e-06
1.962965179e-06
1.959404716e-06
1.959402802e-06
1.962959317e-06
1.959401169e-06
1.95940117e-06
1.962959319e-06
1.959402805e-06
1.959404721e-06
1.962965183e-06
1.959411137e-06
1.959414941e-06
1.962975705e-06
1.959419723e-06
1.956305126e-06
1.959419079e-06
1.956300351e-06
1.956296559e-06
1.959408584e-06
1.95629015e-06
1.956288235e-06
1.959402724e-06
1.956286601e-06
1.956286602e-06
1.959402725e-06
1.956288237e-06
1.956290153e-06
1.959408587e-06
1.95629656e-06
1.956300351e-06
1.959419077e-06
1.956305123e-06
1.956306615e-06
1.959420568e-06
1.956301839e-06
1.956298045e-06
1.95941007e-06
1.956291633e-06
1.956289718e-06
1.959404206e-06
1.956288083e-06
1.956288084e-06
1.959404208e-06
1.956289719e-06
1.956291636e-06
1.959410071e-06
1.956298044e-06
1.956301836e-06
1.959420564e-06
1.95630661e-06
1.959424218e-06
1.9629802e-06
1.959419428e-06
1.959415619e-06
1.962969662e-06
1.959409193e-06
1.959407276e-06
1.962963793e-06
1.959405641e-06
1.959405641e-06
1.962963794e-06
1.959407277e-06
1.959409194e-06
1.962969662e-06
1.959415616e-06
1.959419422e-06
1.962980192e-06
1.959424208e-06
1.956310889e-06
1.959424847e-06
1.956306107e-06
1.956302309e-06
1.959414336e-06
1.95629589e-06
1.956293971e-06
1.959408465e-06
1.956292334e-06
1.956292334e-06
1.959408464e-06
1.956293971e-06
1.956295888e-06
1.959414333e-06
1.956302302e-06
1.956306096e-06
1.959424832e-06
1.956310873e-06
1.956313255e-06
1.959427219e-06
1.95630847e-06
1.956304669e-06
1.959416702e-06
1.956298246e-06
1.956296326e-06
1.959410826e-06
1.956294686e-06
1.956294686e-06
1.959410824e-06
1.956296323e-06
1.956298242e-06
1.959416695e-06
1.956304658e-06
1.956308454e-06
1.959427198e-06
1.956313232e-06
1.959430812e-06
1.962986812e-06
1.959426014e-06
1.959422198e-06
1.962976255e-06
1.959415761e-06
1.959413839e-06
1.962970372e-06
1.959412198e-06
1.959412198e-06
1.96297037e-06
1.959413835e-06
1.959415755e-06
1.962976245e-06
1.959422183e-06
1.959425993e-06
1.962986785e-06
1.959430783e-06
1.956316173e-06
1.959430143e-06
1.956311385e-06
1.956307581e-06
1.959419617e-06
1.956301152e-06
1.95629923e-06
1.959413735e-06
1.956297588e-06
1.956297587e-06
1.959413732e-06
1.956299225e-06
1.956301145e-06
1.959419606e-06
1.956307564e-06
1.956311361e-06
1.959430114e-06
1.956316141e-06
1.955779499e-06
1.958585421e-06
1.955773073e-06
1.95576797e-06
1.95857131e-06
1.955759377e-06
1.955756824e-06
1.958563489e-06
1.955754659e-06
1.955754661e-06
1.958563494e-06
1.955756832e-06
1.955759387e-06
1.958571321e-06
1.95576798e-06
1.95577308e-06
1.958585426e-06
1.955779504e-06
1.958584532e-06
1.961701666e-06
1.958578097e-06
1.958572983e-06
1.961687528e-06
1.958564384e-06
1.958561833e-06
1.96167971e-06
1.958559671e-06
1.958559672e-06
1.961679715e-06
1.958561841e-06
1.958564394e-06
1.961687538e-06
1.958572992e-06
1.958578104e-06
1.961701671e-06
1.958584536e-06
1.95577059e-06
1.958576497e-06
1.955764181e-06
1.955759092e-06
1.958562426e-06
1.955750522e-06
1.955747976e-06
1.958554624e-06
1.955745816e-06
1.955745817e-06
1.958554628e-06
1.955747982e-06
1.95575053e-06
1.958562434e-06
1.9557591e-06
1.955764187e-06
1.958576502e-06
1.955770593e-06
1.955763579e-06
1.958569468e-06
1.955757184e-06
1.955752107e-06
1.958555427e-06
1.955743554e-06
1.955741013e-06
1.958547641e-06
1.955738857e-06
1.955738859e-06
1.958547645e-06
1.955741018e-06
1.955743561e-06
1.958555434e-06
1.955752113e-06
1.955757189e-06
1.958569471e-06
1.955763582e-06
1.958565209e-06
1.961682298e-06
1.958558813e-06
1.958553729e-06
1.961668244e-06
1.95854518e-06
1.958542643e-06
1.961660469e-06
1.958540491e-06
1.958540492e-06
1.961660472e-06
1.958542647e-06
1.958545185e-06
1.961668249e-06
1.958553734e-06
1.958558816e-06
1.961682301e-06
1.958565211e-06
1.955752138e-06
1.958558016e-06
1.955745765e-06
1.955740706e-06
1.958544024e-06
1.955732182e-06
1.95572965e-06
1.958536264e-06
1.955727501e-06
1.955727502e-06
1.958536267e-06
1.955729654e-06
1.955732187e-06
1.958544028e-06
1.95574071e-06
1.955745768e-06
1.958558019e-06
1.95575214e-06
1.95574902e-06
1.9585549e-06
1.955742653e-06
1.955737598e-06
1.958540921e-06
1.955729083e-06
1.955726552e-06
1.958533168e-06
1.955724406e-06
1.955724407e-06
1.958533171e-06
1.955726556e-06
1.955729087e-06
1.958540925e-06
1.955737602e-06
1.955742656e-06
1.958554903e-06
1.955749022e-06
1.958555569e-06
1.961672662e-06
1.958549191e-06
1.958544122e-06
1.961658648e-06
1.958535598e-06
1.958533068e-06
1.961650896e-06
1.958530923e-06
1.958530924e-06
1.961650899e-06
1.958533072e-06
1.958535602e-06
1.961658652e-06
1.958544126e-06
1.958549194e-06
1.961672664e-06
1.958555571e-06
1.955746946e-06
1.958552831e-06
1.955740583e-06
1.955735531e-06
1.95853886e-06
1.955727022e-06
1.955724494e-06
1.958531114e-06
1.955722349e-06
1.95572235e-06
1.958531116e-06
1.955724497e-06
1.955727026e-06
1.958538864e-06
1.955735535e-06
1.955740586e-06
1.958552832e-06
1.955746948e-06
1.955747239e-06
1.958553125e-06
1.955740875e-06
1.955735823e-06
1.958539153e-06
1.955727314e-06
1.955724786e-06
1.958531407e-06
1.955722641e-06
1.955722642e-06
1.958531409e-06
1.955724789e-06
1.955727318e-06
1.958539157e-06
1.955735826e-06
1.955740877e-06
1.958553125e-06
1.955747239e-06
1.958556245e-06
1.961673342e-06
1.958549866e-06
1.958544797e-06
1.961659326e-06
1.958536272e-06
1.958533743e-06
1.961651575e-06
1.958531599e-06
1.958531599e-06
1.961651577e-06
1.958533746e-06
1.958536275e-06
1.961659329e-06
1.958544799e-06
1.958549867e-06
1.961673341e-06
1.958556244e-06
1.955749486e-06
1.958555372e-06
1.955743119e-06
1.955738064e-06
1.958541393e-06
1.95572955e-06
1.955727021e-06
1.958533644e-06
1.955724876e-06
1.955724876e-06
1.958533645e-06
1.955727024e-06
1.955729553e-06
1.958541395e-06
1.955738065e-06
1.955743118e-06
1.958555369e-06
1.955749483e-06
1.955751456e-06
1.958557342e-06
1.955745086e-06
1.955740029e-06
1.958543357e-06