/*--------------------------------*- C++ -*----------------------------------*\
  =========                 |
  \\      /  F ield         | OpenFOAM: The Open Source CFD Toolbox
   \\    /   O peration     | Website:  https://openfoam.org
    \\  /    A nd           | Version:  7
     \\/     M anipulation  |
\*---------------------------------------------------------------------------*/
FoamFile
{
    version     2.0;
    format      ascii;
    class       volVectorField::Internal;
    location    "2";
    object      steelCloud:UTrans;
}
// * * * * * * * * * * * * * * * * * * * * * * * * * * * * * * * * * * * * * //

dimensions      [1 1 -1 0 0 0 0];

value           nonuniform List<vector> 
10692
(
(-3.676899664e-08 -1.001322512e-10 -2.098156115e-10)
(-3.681823967e-08 -9.526750323e-11 -2.100894066e-10)
(-3.676278682e-08 -8.565824235e-11 -2.097527288e-10)
(-3.675776429e-08 -7.304333782e-11 -2.09701769e-10)
(-3.680430767e-08 -5.920778108e-11 -2.099472734e-10)
(-3.674899065e-08 -4.512740345e-11 -2.096096008e-10)
(-3.674617348e-08 -3.1531458e-11 -2.095785776e-10)
(-3.679580282e-08 -1.863623782e-11 -2.098544183e-10)
(-3.674360593e-08 -6.169762527e-12 -2.095494127e-10)
(-3.674360307e-08 6.166351671e-12 -2.095496228e-10)
(-3.679579502e-08 1.863294018e-11 -2.098551132e-10)
(-3.674616261e-08 3.152840668e-11 -2.095798904e-10)
(-3.674897839e-08 4.512470301e-11 -2.096115869e-10)
(-3.680429514e-08 5.920552376e-11 -2.099498254e-10)
(-3.675775213e-08 7.304161145e-11 -2.097046631e-10)
(-3.676277519e-08 8.565704756e-11 -2.097557798e-10)
(-3.681822846e-08 9.526671861e-11 -2.100925076e-10)
(-3.676898568e-08 1.001316709e-10 -2.09818709e-10)
(-3.681641893e-08 -1.002559049e-10 -1.982914087e-10)
(-3.68713231e-08 -9.540194417e-11 -1.985822576e-10)
(-3.681018926e-08 -8.576063562e-11 -1.982315771e-10)
(-3.680514424e-08 -7.311813362e-11 -1.981830293e-10)
(-3.685733336e-08 -5.927115934e-11 -1.984468672e-10)
(-3.679634793e-08 -4.517027828e-11 -1.9809525e-10)
(-3.679352643e-08 -3.155873276e-11 -1.980656749e-10)
(-3.684881392e-08 -1.8655004e-11 -1.983583633e-10)
(-3.679095635e-08 -6.176480718e-12 -1.980378508e-10)
(-3.679095367e-08 6.173096391e-12 -1.980380653e-10)
(-3.684880664e-08 1.865174471e-11 -1.983590724e-10)
(-3.679351627e-08 3.155573983e-11 -1.980670148e-10)
(-3.679633646e-08 4.516764666e-11 -1.980972765e-10)
(-3.68573216e-08 5.926895459e-11 -1.984494676e-10)
(-3.680513285e-08 7.311641316e-11 -1.9818597e-10)
(-3.681017837e-08 8.575938082e-11 -1.982346685e-10)
(-3.687131262e-08 9.540103908e-11 -1.98585393e-10)
(-3.68164087e-08 1.002551699e-10 -1.982945361e-10)
(-3.675761929e-08 -1.000620941e-10 -1.761449243e-10)
(-3.680682891e-08 -9.52013666e-11 -1.763632162e-10)
(-3.675139901e-08 -8.560002808e-11 -1.760911899e-10)
(-3.674636812e-08 -7.299532951e-11 -1.760476119e-10)
(-3.679287391e-08 -5.917052243e-11 -1.762415983e-10)
(-3.673758076e-08 -4.510043713e-11 -1.759684721e-10)
(-3.67347598e-08 -3.151364858e-11 -1.759416794e-10)
(-3.67843574e-08 -1.862623191e-11 -1.761614906e-10)
(-3.673218983e-08 -6.166520785e-12 -1.759164062e-10)
(-3.673218757e-08 6.163225034e-12 -1.759166314e-10)
(-3.678435123e-08 1.862309031e-11 -1.761622318e-10)
(-3.673475113e-08 3.151081761e-11 -1.759430701e-10)
(-3.673757089e-08 4.509799743e-11 -1.759705636e-10)
(-3.679286376e-08 5.916848783e-11 -1.762442698e-10)
(-3.674635827e-08 7.299368611e-11 -1.760506205e-10)
(-3.675138961e-08 8.559871341e-11 -1.760943376e-10)
(-3.680681991e-08 9.520027693e-11 -1.763663946e-10)
(-3.675761054e-08 1.000611109e-10 -1.761480881e-10)
(-3.674839192e-08 -1.000048369e-10 -1.481213525e-10)
(-3.679756269e-08 -9.514732329e-11 -1.482719758e-10)
(-3.674216328e-08 -8.555248889e-11 -1.480755567e-10)
(-3.673712567e-08 -7.295613767e-11 -1.480384148e-10)
(-3.67835892e-08 -5.914006704e-11 -1.481682223e-10)
(-3.672832733e-08 -4.507837401e-11 -1.479705715e-10)
(-3.672550337e-08 -3.149906273e-11 -1.479474392e-10)
(-3.677506345e-08 -1.861801831e-11 -1.480991487e-10)
(-3.672293154e-08 -6.163837361e-12 -1.479255346e-10)
(-3.672292983e-08 6.160701621e-12 -1.479257737e-10)
(-3.677505875e-08 1.861508485e-11 -1.480999322e-10)
(-3.672549665e-08 3.149652138e-11 -1.479489016e-10)
(-3.672831957e-08 4.507629164e-11 -1.479727602e-10)
(-3.678358113e-08 5.913838739e-11 -1.481710034e-10)
(-3.673711783e-08 7.295474887e-11 -1.480415263e-10)
(-3.674215587e-08 8.55512649e-11 -1.480787879e-10)
(-3.679755569e-08 9.514617067e-11 -1.48275218e-10)
(-3.674838517e-08 1.00003712e-10 -1.481245688e-10)
(-3.679077111e-08 -1.000958312e-10 -1.193255701e-10)
(-3.68455762e-08 -9.525086983e-11 -1.194433731e-10)
(-3.678451841e-08 -8.562763276e-11 -1.192883112e-10)
(-3.677945489e-08 -7.300835095e-11 -1.192580405e-10)
(-3.683153553e-08 -5.918575763e-11 -1.19358754e-10)
(-3.677062816e-08 -4.510831933e-11 -1.192024671e-10)
(-3.676779822e-08 -3.151769403e-11 -1.191833677e-10)
(-3.682299022e-08 -1.863184699e-11 -1.193018071e-10)
(-3.676522287e-08 -6.168886339e-12 -1.19165207e-10)
(-3.676522176e-08 6.166024158e-12 -1.191654611e-10)
(-3.682298708e-08 1.862925634e-11 -1.193026379e-10)
(-3.676779358e-08 3.151561868e-11 -1.191849137e-10)
(-3.677062261e-08 4.510682136e-11 -1.192047726e-10)
(-3.683152966e-08 5.918470654e-11 -1.193616683e-10)
(-3.677944922e-08 7.300752618e-11 -1.192612743e-10)
(-3.678451322e-08 8.562683456e-11 -1.192916389e-10)
(-3.684557149e-08 9.525000505e-11 -1.194466863e-10)
(-3.679076669e-08 1.000949194e-10 -1.193288417e-10)
(-3.673196361e-08 -9.989898819e-11 -9.283320837e-11)
(-3.678109785e-08 -9.504743819e-11 -9.291411334e-11)
(-3.672572115e-08 -8.546419547e-11 -9.280439875e-11)
(-3.672067247e-08 -7.288283375e-11 -9.278096416e-11)
(-3.676709372e-08 -5.908271718e-11 -9.284853252e-11)
(-3.671185522e-08 -4.503643529e-11 -9.273760886e-11)
(-3.670902568e-08 -3.147100279e-11 -9.272255462e-11)
(-3.675855115e-08 -1.860200159e-11 -9.280373391e-11)
(-3.670645036e-08 -6.158452697e-12 -9.270817509e-11)
(-3.670644981e-08 6.156022372e-12 -9.270844608e-11)
(-3.675854952e-08 1.859993298e-11 -9.280461579e-11)
(-3.670902301e-08 3.146960526e-11 -9.272418446e-11)
(-3.671185175e-08 4.503578283e-11 -9.274002335e-11)
(-3.676708993e-08 5.908261532e-11 -9.285156294e-11)
(-3.672066894e-08 7.288295109e-11 -9.278429903e-11)
(-3.672571823e-08 8.546425883e-11 -9.280779625e-11)
(-3.678109555e-08 9.504734389e-11 -9.291746426e-11)
(-3.673196169e-08 9.989878856e-11 -9.283649969e-11)
(-3.672622571e-08 -9.986120809e-11 -7.027249162e-11)
(-3.677535425e-08 -9.501174668e-11 -7.033136242e-11)
(-3.671997934e-08 -8.543248668e-11 -7.025139551e-11)
(-3.671492754e-08 -7.285629851e-11 -7.023420502e-11)
(-3.676134136e-08 -5.906176171e-11 -7.028319391e-11)
(-3.670610454e-08 -4.502092522e-11 -7.020211195e-11)
(-3.670327312e-08 -3.146046424e-11 -7.019082971e-11)
(-3.675279324e-08 -1.859586765e-11 -7.024970096e-11)
(-3.670069657e-08 -6.156291809e-12 -7.018000944e-11)
(-3.670069649e-08 6.154397124e-12 -7.01802955e-11)
(-3.675279281e-08 1.859443025e-11 -7.025062965e-11)
(-3.670327201e-08 3.145987373e-11 -7.019253951e-11)
(-3.670610273e-08 4.502128304e-11 -7.020463267e-11)
(-3.676133929e-08 5.906282349e-11 -7.028633493e-11)
(-3.671492588e-08 7.285762975e-11 -7.023762375e-11)
(-3.671997853e-08 8.543374639e-11 -7.02548321e-11)
(-3.677535428e-08 9.501281147e-11 -7.033471034e-11)
(-3.672622623e-08 9.986213706e-11 -7.027575585e-11)
(-3.677328533e-08 -9.998249761e-11 -5.174573701e-11)
(-3.682806946e-08 -9.514382163e-11 -5.179622813e-11)
(-3.676702067e-08 -8.553260515e-11 -5.173126743e-11)
(-3.676194757e-08 -7.292892584e-11 -5.171943864e-11)
(-3.681400202e-08 -5.91231223e-11 -5.176304875e-11)
(-3.675310354e-08 -4.506203893e-11 -5.169717318e-11)
(-3.675026803e-08 -3.148631074e-11 -5.168924652e-11)
(-3.680544022e-08 -1.861361729e-11 -5.173957944e-11)
(-3.674768897e-08 -6.162479235e-12 -5.168163497e-11)
(-3.674768909e-08 6.161177063e-12 -5.16819327e-11)
(-3.680544035e-08 1.861285013e-11 -5.174054513e-11)
(-3.675026772e-08 3.148653964e-11 -5.169102145e-11)
(-3.675310272e-08 4.506339843e-11 -5.169977983e-11)
(-3.681400117e-08 5.912534624e-11 -5.176627177e-11)
(-3.676194742e-08 7.293151599e-11 -5.172289827e-11)
(-3.676702167e-08 8.553517565e-11 -5.173468543e-11)
(-3.682807155e-08 9.514622285e-11 -5.179950446e-11)
(-3.677328805e-08 9.998476769e-11 -5.174889941e-11)
(-3.671877716e-08 -9.981764013e-11 -3.646092066e-11)
(-3.676790007e-08 -9.49705545e-11 -3.64943909e-11)
(-3.671252812e-08 -8.539578795e-11 -3.64520137e-11)
(-3.670747418e-08 -7.282544605e-11 -3.644471438e-11)
(-3.675388114e-08 -5.903724667e-11 -3.647389132e-11)
(-3.669864706e-08 -4.50026198e-11 -3.643084863e-11)
(-3.669581413e-08 -3.144786782e-11 -3.642585414e-11)
(-3.674532859e-08 -1.858838481e-11 -3.64591459e-11)
(-3.669323614e-08 -6.153468013e-12 -3.642108608e-11)
(-3.669323614e-08 6.152767166e-12 -3.642139323e-11)
(-3.67453285e-08 1.858826523e-11 -3.646013892e-11)
(-3.669581378e-08 3.144881886e-11 -3.642766849e-11)
(-3.669864661e-08 4.500480195e-11 -3.643349287e-11)
(-3.675388112e-08 5.904041132e-11 -3.647712578e-11)
(-3.670747528e-08 7.282910267e-11 -3.644813375e-11)
(-3.671253071e-08 8.539954305e-11 -3.645532238e-11)
(-3.676790399e-08 9.49742274e-11 -3.649749539e-11)
(-3.671878183e-08 9.982121782e-11 -3.646387862e-11)
(-3.671648473e-08 -9.98087032e-11 -2.391285772e-11)
(-3.676560452e-08 -9.496211765e-11 -2.393119062e-11)
(-3.6710236e-08 -8.538830395e-11 -2.390854958e-11)
(-3.670518237e-08 -7.281918884e-11 -2.390501534e-11)
(-3.675158643e-08 -5.903229674e-11 -2.392124749e-11)
(-3.669635581e-08 -4.499892737e-11 -2.389822784e-11)
(-3.669352304e-08 -3.144531061e-11 -2.389575743e-11)
(-3.674303429e-08 -1.858682972e-11 -2.391398378e-11)
(-3.669094483e-08 -6.152817072e-12 -2.38934718e-11)
(-3.669094456e-08 6.1525566e-12 -2.389378471e-11)
(-3.674303359e-08 1.858716867e-11 -2.391499396e-11)
(-3.669352225e-08 3.144674694e-11 -2.389759708e-11)
(-3.669635543e-08 4.500164099e-11 -2.39008927e-11)
(-3.67515871e-08 5.903606966e-11 -2.392447136e-11)
(-3.670518468e-08 7.282356188e-11 -2.390835985e-11)
(-3.671024019e-08 8.539289794e-11 -2.391170076e-11)
(-3.676561029e-08 9.496672841e-11 -2.393406546e-11)
(-3.671649137e-08 9.981325981e-11 -2.391554917e-11)
(-3.67664098e-08 -9.995444638e-11 -1.389114347e-11)
(-3.682118584e-08 -9.511735615e-11 -1.389942621e-11)
(-3.676014565e-08 -8.550914235e-11 -1.389064099e-11)
(-3.675507308e-08 -7.290932917e-11 -1.389023207e-11)
(-3.680711989e-08 -5.910764925e-11 -1.389826476e-11)
(-3.674623009e-08 -4.505052787e-11 -1.388941185e-11)
(-3.67433949e-08 -3.147837072e-11 -1.388911127e-11)
(-3.679855884e-08 -1.860882577e-11 -1.389741184e-11)
(-3.67408153e-08 -6.160526793e-12 -1.388898731e-11)
(-3.674081482e-08 6.160424776e-12 -1.388930297e-11)
(-3.67985577e-08 1.860932135e-11 -1.389843166e-11)
(-3.674339387e-08 3.14799617e-11 -1.389096833e-11)
(-3.674623001e-08 4.505340105e-11 -1.389209202e-11)
(-3.680712146e-08 5.911160315e-11 -1.390147548e-11)
(-3.675507684e-08 7.29139234e-11 -1.389349738e-11)
(-3.67601517e-08 8.55140121e-11 -1.389362916e-11)
(-3.682119376e-08 9.51222902e-11 -1.390206618e-11)
(-3.676641871e-08 9.995934418e-11 -1.389356289e-11)
(-3.671461872e-08 -9.981012712e-11 -6.364800857e-12)
(-3.676373748e-08 -9.496360798e-11 -6.362643774e-12)
(-3.670837175e-08 -8.538986728e-11 -6.367584264e-12)
(-3.670331966e-08 -7.282078448e-11 -6.36987951e-12)
(-3.674972378e-08 -5.903382672e-11 -6.369091775e-12)
(-3.669449634e-08 -4.500024601e-11 -6.374275861e-12)
(-3.669166486e-08 -3.144629647e-11 -6.375897413e-12)
(-3.67411753e-08 -1.858741775e-11 -6.373905513e-12)
(-3.668908765e-08 -6.152984519e-12 -6.377704699e-12)
(-3.668908718e-08 6.152806859e-12 -6.378023173e-12)
(-3.674117427e-08 1.858781638e-11 -6.374933729e-12)
(-3.669166424e-08 3.144774972e-11 -6.377764739e-12)
(-3.669449711e-08 4.500292426e-11 -6.376955718e-12)
(-3.674972671e-08 5.903752239e-11 -6.372270411e-12)
(-3.670332524e-08 7.28250655e-11 -6.373061274e-12)
(-3.670838e-08 8.539437219e-11 -6.370423648e-12)
(-3.676374786e-08 9.496813582e-11 -6.365076585e-12)
(-3.67146302e-08 9.981460388e-11 -6.366981943e-12)
(-3.671503183e-08 -9.981815954e-11 -1.552576857e-12)
(-3.676415235e-08 -9.497135585e-11 -1.539026009e-12)
(-3.670878563e-08 -8.539700155e-11 -1.558438051e-12)
(-3.670373425e-08 -7.282706196e-11 -1.563270607e-12)
(-3.675014066e-08 -5.903908053e-11 -1.552607825e-12)
(-3.669491255e-08 -4.500434149e-11 -1.572543022e-12)
(-3.669208184e-08 -3.144918575e-11 -1.575958472e-12)
(-3.674159438e-08 -1.858913231e-11 -1.562711233e-12)
(-3.668950563e-08 -6.15357898e-12 -1.579566374e-12)
(-3.668950534e-08 6.153292964e-12 -1.579889104e-12)
(-3.674159391e-08 1.858937886e-11 -1.563753738e-12)
(-3.669208214e-08 3.145041058e-11 -1.577851191e-12)
(-3.669491463e-08 4.500668177e-11 -1.57525071e-12)
(-3.675014527e-08 5.90423046e-11 -1.555796054e-12)
(-3.670374181e-08 7.283073113e-11 -1.566418324e-12)
(-3.670879613e-08 8.540075733e-11 -1.561185059e-12)
(-3.676416516e-08 9.497502728e-11 -1.541314684e-12)
(-3.671504581e-08 9.982173334e-11 -1.554587246e-12)
(-3.676750874e-08 -9.997702806e-11 2.769767143e-13)
(-3.682228972e-08 -9.513916613e-11 2.978979929e-13)
(-3.676124663e-08 -8.552927837e-11 2.680350287e-13)
(-3.675617594e-08 -7.292710612e-11 2.60665395e-13)
(-3.680822916e-08 -5.912256735e-11 2.772010885e-13)
(-3.674733734e-08 -4.506216129e-11 2.465914993e-13)
(-3.674450422e-08 -3.148654793e-11 2.414400361e-13)
(-3.679967408e-08 -1.861362025e-11 2.619626919e-13)
(-3.674192732e-08 -6.162092456e-12 2.361028481e-13)
(-3.674192731e-08 6.161972223e-12 2.357708829e-13)
(-3.67996744e-08 1.861395964e-11 2.608908535e-13)
(-3.674450572e-08 3.148773407e-11 2.394951545e-13)
(-3.67473409e-08 4.506428607e-11 2.438149275e-13)
(-3.680823543e-08 5.912537813e-11 2.739464219e-13)
(-3.675618524e-08 7.293016656e-11 2.574827611e-13)
(-3.676125887e-08 8.553225071e-11 2.652986407e-13)
(-3.682230424e-08 9.514192548e-11 2.956600162e-13)
(-3.676752438e-08 9.997962968e-11 2.750372377e-13)
(-3.67178454e-08 -9.984141275e-11 -6.670839523e-13)
(-3.676697246e-08 -9.499379943e-11 -6.522046941e-13)
(-3.671159932e-08 -8.541772047e-11 -6.791319461e-13)
(-3.670654815e-08 -7.284534333e-11 -6.890523175e-13)
(-3.675296148e-08 -5.905437461e-11 -6.800317242e-13)
(-3.669772752e-08 -4.501616616e-11 -7.078603467e-13)
(-3.669489761e-08 -3.145734745e-11 -7.146784434e-13)
(-3.67444175e-08 -1.859372653e-11 -7.002247955e-13)
(-3.669232303e-08 -6.154798982e-12 -7.216613929e-13)
(-3.669232335e-08 6.155309727e-12 -7.220107004e-13)
(-3.674441871e-08 1.859459589e-11 -7.013457914e-13)
(-3.669490037e-08 3.145885509e-11 -7.166954532e-13)
(-3.66977325e-08 4.501834807e-11 -7.107210531e-13)
(-3.675296913e-08 5.905698228e-11 -6.833706443e-13)
(-3.670655859e-08 7.284798181e-11 -6.923119923e-13)
(-3.671161236e-08 8.542010138e-11 -6.819313509e-13)
(-3.676698748e-08 9.499585255e-11 -6.544905184e-13)
(-3.671786141e-08 9.984325331e-11 -6.690604389e-13)
(-3.671965387e-08 -9.985325596e-11 -3.262458078e-12)
(-3.676878723e-08 -9.500526756e-11 -3.255477621e-12)
(-3.671340721e-08 -8.542833645e-11 -3.277443118e-12)
(-3.670835559e-08 -7.285475025e-11 -3.289787148e-12)
(-3.675477508e-08 -5.906227177e-11 -3.290049118e-12)
(-3.669953443e-08 -4.50222315e-11 -3.312981862e-12)
(-3.66967045e-08 -3.146144602e-11 -3.321308403e-12)
(-3.674623104e-08 -1.859591485e-11 -3.314744903e-12)
(-3.669413034e-08 -6.155195414e-12 -3.329761895e-12)
(-3.669413095e-08 6.156623651e-12 -3.330130759e-12)
(-3.674623306e-08 1.859759033e-11 -3.315922052e-12)
(-3.669670838e-08 3.146352755e-11 -3.323411624e-12)
(-3.669954061e-08 4.502470047e-11 -3.315950939e-12)
(-3.675478376e-08 5.906489881e-11 -3.293507967e-12)
(-3.670836666e-08 7.28571979e-11 -3.29316604e-12)
(-3.671342037e-08 8.543037917e-11 -3.280354762e-12)
(-3.676880193e-08 9.500689112e-11 -3.257867894e-12)
(-3.671966933e-08 9.985462405e-11 -3.264532801e-12)
(-3.677246914e-08 -1.000103663e-10 -6.021915195e-12)
(-3.682726628e-08 -9.517143148e-11 -6.019472762e-12)
(-3.676620564e-08 -8.555913726e-11 -6.039184732e-12)
(-3.67611339e-08 -7.295354965e-11 -6.053418056e-12)
(-3.681320295e-08 -5.914475442e-11 -6.059293475e-12)
(-3.675229417e-08 -4.507922024e-11 -6.079995481e-12)
(-3.674946116e-08 -3.149811377e-11 -6.089474513e-12)
(-3.680464813e-08 -1.861984361e-11 -6.087434744e-12)
(-3.674688555e-08 -6.163294627e-12 -6.099043409e-12)
(-3.674688638e-08 6.165566761e-12 -6.099428108e-12)
(-3.680465075e-08 1.862227048e-11 -6.088658483e-12)
(-3.674946585e-08 3.150075862e-11 -6.091653466e-12)
(-3.675230119e-08 4.508202342e-11 -6.083065787e-12)
(-3.681321229e-08 5.91475053e-11 -6.062869881e-12)
(-3.676114525e-08 7.295595876e-11 -6.056913849e-12)
(-3.676621862e-08 8.556103295e-11 -6.042206459e-12)
(-3.682728041e-08 9.517284474e-11 -6.021966974e-12)
(-3.677248383e-08 1.000114952e-10 -6.024090154e-12)
(-3.672193587e-08 -9.986720884e-11 -7.730908076e-12)
(-3.677107427e-08 -9.501877713e-11 -7.731903696e-12)
(-3.671568824e-08 -8.544087247e-11 -7.749339551e-12)
(-3.671063587e-08 -7.286587912e-11 -7.764507654e-12)
(-3.675706006e-08 -5.907161203e-11 -7.774340759e-12)
(-3.67018136e-08 -4.50294045e-11 -7.792821802e-12)
(-3.669898347e-08 -3.146627595e-11 -7.802899149e-12)
(-3.67485154e-08 -1.859844902e-11 -7.80426868e-12)
(-3.669640957e-08 -6.15556709e-12 -7.813053507e-12)
(-3.669641051e-08 6.158312802e-12 -7.813447724e-12)
(-3.67485183e-08 1.860129663e-11 -7.805518508e-12)
(-3.669898854e-08 3.146924145e-11 -7.805114057e-12)
(-3.6701821e-08 4.503240562e-11 -7.795932072e-12)
(-3.675706967e-08 5.907444772e-11 -7.777959252e-12)
(-3.671064729e-08 7.28682903e-11 -7.768052974e-12)
(-3.671570103e-08 8.544271753e-11 -7.752417873e-12)
(-3.677108799e-08 9.502011e-11 -7.73445841e-12)
(-3.672195003e-08 9.986824417e-11 -7.733144109e-12)
(-3.705192786e-08 -1.039966554e-10 -2.2143767e-10)
(-3.710731693e-08 -9.892232503e-11 -2.217638626e-10)
(-3.704586749e-08 -8.884952621e-11 -2.213668312e-10)
(-3.704096333e-08 -7.566076977e-11 -2.213094031e-10)
(-3.70937256e-08 -6.125390221e-11 -2.216038649e-10)
(-3.703244921e-08 -4.663002824e-11 -2.212062222e-10)
(-3.702973718e-08 -3.25546527e-11 -2.21171777e-10)
(-3.708552599e-08 -1.923758956e-11 -2.215006146e-10)
(-3.702727996e-08 -6.368823474e-12 -2.211395638e-10)
(-3.702727731e-08 6.365677189e-12 -2.211397664e-10)
(-3.70855188e-08 1.923453705e-11 -2.215012746e-10)
(-3.702972725e-08 3.255180598e-11 -2.211730019e-10)
(-3.703243812e-08 4.662746727e-11 -2.212080514e-10)
(-3.709371433e-08 6.125169244e-11 -2.216061962e-10)
(-3.704095243e-08 7.565897673e-11 -2.213120313e-10)
(-3.704585703e-08 8.884814548e-11 -2.213695922e-10)
(-3.710730678e-08 9.892125889e-11 -2.217666639e-10)
(-3.705191792e-08 1.03995743e-10 -2.214404653e-10)
(-3.710553983e-08 -1.041410725e-10 -2.09045227e-10)
(-3.716900979e-08 -9.908429274e-11 -2.094010534e-10)
(-3.709945763e-08 -8.896944438e-11 -2.089778773e-10)
(-3.709452761e-08 -7.574732085e-11 -2.089231973e-10)
(-3.715535155e-08 -6.132929876e-11 -2.09248731e-10)
(-3.708598865e-08 -4.668000521e-11 -2.088250082e-10)
(-3.708327193e-08 -3.258620039e-11 -2.087921975e-10)
(-3.714713609e-08 -1.926009622e-11 -2.09150399e-10)
(-3.708081195e-08 -6.376864279e-12 -2.087614888e-10)
(-3.708080947e-08 6.37377109e-12 -2.087616947e-10)
(-3.714712937e-08 1.925710596e-11 -2.091510704e-10)
(-3.708326266e-08 3.258343236e-11 -2.087934464e-10)
(-3.708597828e-08 4.667753008e-11 -2.088268752e-10)
(-3.7155341e-08 6.132715807e-11 -2.092511098e-10)
(-3.709451741e-08 7.574555438e-11 -2.089258728e-10)
(-3.709944788e-08 8.896803107e-11 -2.089806816e-10)
(-3.716900035e-08 9.908314015e-11 -2.094038943e-10)
(-3.71055306e-08 1.041400427e-10 -2.090480582e-10)
(-3.704082003e-08 -1.039177537e-10 -1.851476535e-10)
(-3.709617252e-08 -9.884798977e-11 -1.854073109e-10)
(-3.703474778e-08 -8.878424541e-11 -1.85087325e-10)
(-3.702983408e-08 -7.560711699e-11 -1.850383843e-10)
(-3.708255494e-08 -6.121241161e-11 -1.852708709e-10)
(-3.70213042e-08 -4.660010211e-11 -1.849500722e-10)
(-3.70185877e-08 -3.253494131e-11 -1.849204073e-10)
(-3.707434163e-08 -1.922652487e-11 -1.851820513e-10)
(-3.701612738e-08 -6.365219163e-12 -1.848925602e-10)
(-3.70161253e-08 6.362266144e-12 -1.848927748e-10)
(-3.707433597e-08 1.922369952e-11 -1.851827494e-10)
(-3.701857983e-08 3.25323743e-11 -1.849216999e-10)
(-3.702129534e-08 4.659785116e-11 -1.849519977e-10)
(-3.708254589e-08 6.121047284e-11 -1.852733166e-10)
(-3.702982534e-08 7.560546594e-11 -1.850411282e-10)
(-3.703473945e-08 8.87828224e-11 -1.850901909e-10)
(-3.709616452e-08 9.884671415e-11 -1.854102041e-10)
(-3.704081225e-08 1.039165445e-10 -1.851505327e-10)
(-3.703180114e-08 -1.038533619e-10 -1.550165324e-10)
(-3.708710897e-08 -9.878723499e-11 -1.551917696e-10)
(-3.70257194e-08 -8.873094205e-11 -1.549653241e-10)
(-3.702079802e-08 -7.556333622e-11 -1.549237894e-10)
(-3.707347028e-08 -6.117851332e-11 -1.550758558e-10)
(-3.701225555e-08 -4.657563445e-11 -1.548483651e-10)
(-3.700953551e-08 -3.251881247e-11 -1.54822832e-10)
(-3.706524613e-08 -1.921745095e-11 -1.549995159e-10)
(-3.700707281e-08 -6.362238803e-12 -1.54798759e-10)
(-3.700707126e-08 6.359515601e-12 -1.547989845e-10)
(-3.706524186e-08 1.921489685e-11 -1.550002486e-10)
(-3.700952948e-08 3.251658688e-11 -1.548241862e-10)
(-3.701224865e-08 4.657378233e-11 -1.548503784e-10)
(-3.707346318e-08 6.117696821e-11 -1.550784055e-10)
(-3.702079118e-08 7.556198546e-11 -1.549266362e-10)
(-3.702571298e-08 8.872966909e-11 -1.549682804e-10)
(-3.708710293e-08 9.87859693e-11 -1.55194739e-10)
(-3.703179533e-08 1.038520927e-10 -1.550194795e-10)
(-3.708048436e-08 -1.039612805e-10 -1.242729588e-10)
(-3.714383952e-08 -9.891467412e-11 -1.244115813e-10)
(-3.707437606e-08 -8.882049553e-11 -1.242315084e-10)
(-3.706942493e-08 -7.562481809e-11 -1.241978284e-10)
(-3.713012321e-08 -6.123433765e-11 -1.243175148e-10)
(-3.706085114e-08 -4.661135671e-11 -1.241363418e-10)
(-3.705812452e-08 -3.254085807e-11 -1.241153488e-10)
(-3.712187748e-08 -1.923453387e-11 -1.242548487e-10)
(-3.705565783e-08 -6.368437518e-12 -1.240954624e-10)
(-3.705565684e-08 6.366065284e-12 -1.240956995e-10)
(-3.712187469e-08 1.923239171e-11 -1.242556193e-10)
(-3.705812043e-08 3.253915461e-11 -1.241167743e-10)
(-3.706084629e-08 4.66101322e-11 -1.241384601e-10)
(-3.713011815e-08 6.12334584e-11 -1.243201899e-10)
(-3.706942014e-08 7.562407287e-11 -1.242007958e-10)
(-3.707437176e-08 8.881970112e-11 -1.242345672e-10)
(-3.714383569e-08 9.891376075e-11 -1.244146348e-10)
(-3.708048083e-08 1.039602966e-10 -1.242759778e-10)
(-3.701578636e-08 -1.037352578e-10 -9.622924512e-11)
(-3.707105453e-08 -9.867585567e-11 -9.632238531e-11)
(-3.700968909e-08 -8.863269536e-11 -9.619741383e-11)
(-3.700475523e-08 -7.54820204e-11 -9.617152413e-11)
(-3.705738127e-08 -6.111510298e-11 -9.624999127e-11)
(-3.699619135e-08 -4.652940812e-11 -9.612386676e-11)
(-3.69934649e-08 -3.248795622e-11 -9.610741547e-11)
(-3.704913777e-08 -1.91998497e-11 -9.620098382e-11)
(-3.699099786e-08 -6.356294609e-12 -9.609174705e-11)
(-3.699099741e-08 6.354430656e-12 -9.609199725e-11)
(-3.704913641e-08 1.919829851e-11 -9.620179526e-11)
(-3.699346266e-08 3.248698493e-11 -9.610891043e-11)
(-3.699618845e-08 4.652906891e-11 -9.612607888e-11)
(-3.705737815e-08 6.11152046e-11 -9.625277037e-11)
(-3.700475244e-08 7.548224883e-11 -9.61745883e-11)
(-3.700968695e-08 8.86328013e-11 -9.620054733e-11)
(-3.707105303e-08 9.867576075e-11 -9.632548924e-11)
(-3.701578526e-08 1.037350387e-10 -9.623230122e-11)
(-3.701016782e-08 -1.036935309e-10 -7.258213316e-11)
(-3.706543009e-08 -9.863646029e-11 -7.264987045e-11)
(-3.700406621e-08 -8.859775522e-11 -7.255903563e-11)
(-3.699912887e-08 -7.545285159e-11 -7.254022074e-11)
(-3.70517471e-08 -6.109212711e-11 -7.259718484e-11)
(-3.699055864e-08 -4.651244345e-11 -7.250524559e-11)
(-3.69878301e-08 -3.247644778e-11 -7.249301051e-11)
(-3.704349744e-08 -1.919315202e-11 -7.256083011e-11)
(-3.698536161e-08 -6.353927567e-12 -7.248129659e-11)
(-3.698536158e-08 6.352668122e-12 -7.248155802e-11)
(-3.704349719e-08 1.919229364e-11 -7.256167778e-11)
(-3.69878293e-08 3.247633233e-11 -7.24945707e-11)
(-3.699055726e-08 4.65131498e-11 -7.250754875e-11)
(-3.705174557e-08 6.109341833e-11 -7.260006345e-11)
(-3.699912784e-08 7.545431506e-11 -7.254336596e-11)
(-3.700406607e-08 8.859907987e-11 -7.25622159e-11)
(-3.706543083e-08 9.863755074e-11 -7.265298825e-11)
(-3.701016907e-08 1.036944687e-10 -7.258518413e-11)
(-3.706333185e-08 -1.038359442e-10 -5.333170668e-11)
(-3.712666487e-08 -9.879636259e-11 -5.339194803e-11)
(-3.705721023e-08 -8.871565352e-11 -5.331605321e-11)
(-3.705224842e-08 -7.553740996e-11 -5.33032615e-11)
(-3.711291873e-08 -6.116559104e-11 -5.335608557e-11)
(-3.704365537e-08 -4.656068782e-11 -5.327927076e-11)
(-3.704092253e-08 -3.250655809e-11 -5.327076188e-11)
(-3.710465453e-08 -1.921461544e-11 -5.333087315e-11)
(-3.703845143e-08 -6.361417065e-12 -5.32625919e-11)
(-3.70384516e-08 6.360801574e-12 -5.32628614e-11)
(-3.71046548e-08 1.921447317e-11 -5.333174795e-11)
(-3.704092244e-08 3.25072996e-11 -5.3272374e-11)
(-3.704365487e-08 4.656242378e-11 -5.328164731e-11)
(-3.71129183e-08 6.116806437e-11 -5.335903935e-11)
(-3.705224877e-08 7.554014491e-11 -5.330644989e-11)
(-3.70572118e-08 8.871829791e-11 -5.331922904e-11)
(-3.712666758e-08 9.879879744e-11 -5.33950191e-11)
(-3.706333519e-08 1.038382306e-10 -5.333468628e-11)
(-3.700267041e-08 -1.036458922e-10 -3.752657512e-11)
(-3.705792623e-08 -9.859144338e-11 -3.75659142e-11)
(-3.699656582e-08 -8.855769973e-11 -3.751710857e-11)
(-3.699162612e-08 -7.541923567e-11 -3.750935577e-11)
(-3.704423656e-08 -6.10654648e-11 -3.754414742e-11)
(-3.698305137e-08 -4.649256652e-11 -3.749466584e-11)
(-3.698032121e-08 -3.246278282e-11 -3.748938694e-11)
(-3.703598211e-08 -1.918503644e-11 -3.752855243e-11)
(-3.697785115e-08 -6.350870125e-12 -3.748433383e-11)
(-3.697785117e-08 6.350881844e-12 -3.748460989e-11)
(-3.703598209e-08 1.918556676e-11 -3.752944687e-11)
(-3.698032101e-08 3.246426701e-11 -3.749102804e-11)
(-3.698305114e-08 4.649513975e-11 -3.749707029e-11)
(-3.704423685e-08 6.106888689e-11 -3.754710853e-11)
(-3.69916276e-08 7.542304031e-11 -3.751251184e-11)
(-3.699656885e-08 8.856152775e-11 -3.752019702e-11)
(-3.705793063e-08 9.859514565e-11 -3.756884698e-11)
(-3.700267557e-08 1.036494792e-10 -3.752939061e-11)
(-3.700024748e-08 -1.036362645e-10 -2.459738041e-11)
(-3.70554991e-08 -9.858235664e-11 -2.461868673e-11)
(-3.699414322e-08 -8.854964556e-11 -2.459296842e-11)
(-3.698920384e-08 -7.541250744e-11 -2.45893547e-11)
(-3.704181032e-08 -6.106014589e-11 -2.46085172e-11)
(-3.69806297e-08 -4.64886015e-11 -2.458241382e-11)
(-3.697789974e-08 -3.246003796e-11 -2.457988657e-11)
(-3.703355638e-08 -1.918336988e-11 -2.460108327e-11)
(-3.697542951e-08 -6.350182241e-12 -2.457752854e-11)
(-3.697542924e-08 6.350634171e-12 -2.457780824e-11)
(-3.703355571e-08 1.918436066e-11 -2.460198932e-11)
(-3.697789904e-08 3.246201141e-11 -2.458154627e-11)
(-3.698062948e-08 4.649171136e-11 -2.458483461e-11)
(-3.70418112e-08 6.106417982e-11 -2.461147089e-11)
(-3.698920641e-08 7.541702723e-11 -2.45924516e-11)
(-3.699414771e-08 8.855430491e-11 -2.459592991e-11)
(-3.705550521e-08 9.858698363e-11 -2.462143294e-11)
(-3.700025447e-08 1.036408122e-10 -2.459997962e-11)
(-3.70561212e-08 -1.038056444e-10 -1.432596672e-11)
(-3.711944339e-08 -9.876778585e-11 -1.433584891e-11)
(-3.70500001e-08 -8.869034334e-11 -1.432568021e-11)
(-3.704503886e-08 -7.551629489e-11 -1.432545434e-11)
(-3.710569884e-08 -6.114893853e-11 -1.43351935e-11)
(-3.703644698e-08 -4.65483146e-11 -1.432495999e-11)
(-3.703371454e-08 -3.249803234e-11 -1.432476869e-11)
(-3.709743563e-08 -1.920948114e-11 -1.43346646e-11)
(-3.703124301e-08 -6.359352711e-12 -1.432473091e-11)
(-3.703124253e-08 6.359934333e-12 -1.432501247e-11)
(-3.70974345e-08 1.921060435e-11 -1.433557806e-11)
(-3.703371357e-08 3.250014474e-11 -1.43264442e-11)
(-3.703644699e-08 4.655157665e-11 -1.432739826e-11)
(-3.710570053e-08 6.115314963e-11 -1.433814466e-11)
(-3.704504277e-08 7.552102735e-11 -1.432849428e-11)
(-3.705000631e-08 8.869526135e-11 -1.432851506e-11)
(-3.711945148e-08 9.877271118e-11 -1.433840889e-11)
(-3.705613029e-08 1.03810502e-10 -1.432834936e-11)
(-3.699815794e-08 -1.036380731e-10 -6.715282437e-12)
(-3.705340794e-08 -9.858422563e-11 -6.712721733e-12)
(-3.699205566e-08 -8.855156419e-11 -6.718511555e-12)
(-3.698711803e-08 -7.54144241e-11 -6.721177145e-12)
(-3.703972412e-08 -6.106195794e-11 -6.72020036e-12)
(-3.697854755e-08 -4.649015662e-11 -6.726248254e-12)
(-3.697581905e-08 -3.246120954e-11 -6.72810221e-12)
(-3.703147433e-08 -1.918409008e-11 -6.725703722e-12)
(-3.697334999e-08 -6.350425502e-12 -6.730115807e-12)
(-3.697334951e-08 6.350869233e-12 -6.730400942e-12)
(-3.703147331e-08 1.918506144e-11 -6.726627818e-12)
(-3.697581845e-08 3.246314296e-11 -6.729791666e-12)
(-3.697854835e-08 4.649319618e-11 -6.728692816e-12)
(-3.703972709e-08 6.106588983e-11 -6.723132226e-12)
(-3.698712364e-08 7.541882069e-11 -6.724158061e-12)
(-3.699206393e-08 8.855608467e-11 -6.721235425e-12)
(-3.705341833e-08 9.858870036e-11 -6.715123352e-12)
(-3.699816942e-08 1.036424609e-10 -6.717481515e-12)
(-3.699852376e-08 -1.036468786e-10 -2.06778728e-12)
(-3.705377582e-08 -9.859272087e-11 -2.051341579e-12)
(-3.699242241e-08 -8.855937933e-11 -2.074298369e-12)
(-3.698748563e-08 -7.542129585e-11 -2.079668445e-12)
(-3.704009441e-08 -6.10677136e-11 -2.066421204e-12)
(-3.697891705e-08 -4.649465442e-11 -2.089922339e-12)
(-3.697618942e-08 -3.246440075e-11 -2.09367735e-12)
(-3.703184714e-08 -1.91860064e-11 -2.077533239e-12)
(-3.697372147e-08 -6.351116922e-12 -2.097596139e-12)
(-3.697372119e-08 6.35136753e-12 -2.097886985e-12)
(-3.703184666e-08 1.918674924e-11 -2.078475612e-12)
(-3.697618972e-08 3.246604728e-11 -2.095398389e-12)
(-3.697891911e-08 4.649731659e-11 -2.092404025e-12)
(-3.704009899e-08 6.107114598e-11 -2.069377763e-12)
(-3.698749313e-08 7.54250536e-11 -2.082639479e-12)
(-3.699243281e-08 8.856311528e-11 -2.076964747e-12)
(-3.70537885e-08 9.859629345e-11 -2.053643058e-12)
(-3.699853758e-08 1.036503142e-10 -2.06986476e-12)
(-3.705706952e-08 -1.038303488e-10 -7.425052386e-13)
(-3.712039737e-08 -9.879165113e-11 -7.170403079e-13)
(-3.705095088e-08 -8.871235843e-11 -7.523295121e-13)