/*--------------------------------*- C++ -*----------------------------------*\
  =========                 |
  \\      /  F ield         | OpenFOAM: The Open Source CFD Toolbox
   \\    /   O peration     | Website:  https://openfoam.org
    \\  /    A nd           | Version:  7
     \\/     M anipulation  |
\*---------------------------------------------------------------------------*/
FoamFile
{
    version     2.0;
    format      ascii;
    class       volScalarField;
    location    "2";
    object      T;
}
// * * * * * * * * * * * * * * * * * * * * * * * * * * * * * * * * * * * * * //

dimensions      [0 0 0 1 0 0 0];

internalField   nonuniform List<scalar> 
10692
(
300.5962803
300.6002468
300.5963495
300.5964138
300.6004545
300.5965442
300.5965804
300.6005753
300.5966175
300.5966174
300.6005752
300.5965803
300.5965442
300.6004547
300.5964143
300.5963503
300.6002478
300.5962815
300.600246
300.6046537
300.600316
300.6003793
300.604862
300.6005105
300.6005463
300.6049826
300.6005835
300.6005835
300.6049825
300.6005462
300.6005105
300.6048622
300.6003798
300.6003168
300.6046546
300.6002471
300.5963833
300.6003507
300.5964522
300.5965163
300.6005581
300.5966464
300.5966826
300.6006786
300.5967196
300.5967195
300.6006786
300.5966825
300.5966465
300.6005583
300.5965167
300.5964527
300.6003515
300.5963841
300.5964702
300.6004366
300.5965389
300.596603
300.6006437
300.5967329
300.596769
300.600764
300.5968059
300.5968059
300.600764
300.5967689
300.5967329
300.6006438
300.5966032
300.5965393
300.6004372
300.5964708
300.600536
300.6049444
300.6006058
300.6006687
300.6051518
300.6007993
300.6008349
300.6052718
300.600872
300.600872
300.6052718
300.6008349
300.6007994
300.605152
300.6006689
300.6006061
300.6049448
300.6005364
300.5966463
300.6006136
300.5967148
300.5967786
300.6008201
300.5969082
300.5969441
300.60094
300.5969809
300.596981
300.6009401
300.5969442
300.5969083
300.6008203
300.5967788
300.596715
300.6006139
300.5966466
300.5966909
300.6006574
300.5967593
300.5968231
300.6008638
300.5969525
300.5969884
300.6009836
300.5970252
300.5970252
300.6009837
300.5969885
300.5969526
300.600864
300.5968232
300.5967595
300.6006576
300.5966911
300.6006905
300.6050989
300.60076
300.6008229
300.6053058
300.600953
300.6009885
300.6054254
300.6010255
300.6010255
300.6054256
300.6009887
300.6009532
300.605306
300.600823
300.6007602
300.6050991
300.6006907
300.5967332
300.6007002
300.5968015
300.5968653
300.6009064
300.5969946
300.5970305
300.6010261
300.5970672
300.5970673
300.6010262
300.5970306
300.5969948
300.6009065
300.5968654
300.5968016
300.6007003
300.5967333
300.596729
300.6006958
300.5967974
300.5968611
300.6009021
300.5969905
300.5970264
300.6010218
300.5970632
300.5970632
300.6010219
300.5970265
300.5969906
300.6009022
300.5968612
300.5967975
300.6006959
300.5967291
300.6006873
300.6050957
300.6007569
300.6008197
300.6053027
300.6009499
300.6009854
300.6054223
300.6010224
300.6010224
300.6054224
300.6009854
300.60095
300.6053027
300.6008197
300.6007569
300.6050958
300.6006874
300.5966972
300.600664
300.5967656
300.5968294
300.6008704
300.5969589
300.5969948
300.6009902
300.5970316
300.5970316
300.6009902
300.5969948
300.5969589
300.6008704
300.5968294
300.5967656
300.600664
300.5966972
300.5966694
300.6006364
300.5967379
300.5968017
300.6008428
300.5969312
300.5969671
300.6009627
300.5970039
300.5970039
300.6009627
300.5969671
300.5969312
300.6008428
300.5968016
300.5967378
300.6006363
300.5966693
300.6006002
300.6050086
300.6006698
300.6007327
300.6052158
300.6008631
300.6008986
300.6053356
300.6009356
300.6009356
300.6053355
300.6008986
300.600863
300.6052157
300.6007326
300.6006697
300.6050085
300.6006
300.5965861
300.6005527
300.5966546
300.5967185
300.6007593
300.5968481
300.5968841
300.6008793
300.5969208
300.5969208
300.6008792
300.5968839
300.5968479
300.6007591
300.5967182
300.5966543
300.6005524
300.5965858
300.5965443
300.6005116
300.5966129
300.5966768
300.6007183
300.5968065
300.5968424
300.6008382
300.5968792
300.5968791
300.600838
300.5968422
300.5968062
300.6007179
300.5966764
300.5966125
300.6005111
300.5965438
300.6004753
300.6048836
300.600545
300.600608
300.605091
300.6007385
300.6007741
300.6052108
300.600811
300.6008109
300.6052106
300.6007737
300.6007381
300.6050905
300.6006075
300.6005445
300.6048829
300.6004747
300.596509
300.6004754
300.5965777
300.5966417
300.6006822
300.5967714
300.5968074
300.6008022
300.5968441
300.596844
300.6008019
300.596807
300.5967709
300.6006817
300.5966411
300.5965771
300.6004747
300.5965083
303.1662383
303.1728991
303.1607781
303.1610712
303.174539
303.1614294
303.1615568
303.1748716
303.1616126
303.1616126
303.1748713
303.1615565
303.1614295
303.1745395
303.1610722
303.1607797
303.1729011
303.1662405
303.1701627
303.1785975
303.1646905
303.1649765
303.1802272
303.1653366
303.1654592
303.1805689
303.1655201
303.1655201
303.1805687
303.165459
303.1653366
303.1802276
303.1649775
303.1646919
303.1785994
303.1701648
303.1598777
303.1665154
303.1544216
303.1547146
303.1681572
303.1550722
303.1552011
303.1684867
303.1552549
303.1552549
303.1684866
303.155201
303.1550723
303.1681575
303.1547154
303.1544228
303.166517
303.1598793
303.1593322
303.1659675
303.1538751
303.1541671
303.167607
303.1545244
303.1546537
303.1679357
303.1547071
303.1547071
303.1679356
303.1546537
303.1545245
303.1676073
303.1541677
303.1538759
303.1659686
303.1593333
303.1730869
303.1815117
303.1676155
303.1679028
303.1831479
303.168262
303.1683849
303.183488
303.1684448
303.1684449
303.183488
303.168385
303.1682622
303.1831482
303.1679032
303.1676161
303.1815124
303.1730877
303.1599124
303.1665428
303.1544557
303.1547482
303.1681811
303.1551041
303.1552331
303.1685094
303.1552865
303.1552866
303.1685095
303.1552333
303.1551044
303.1681815
303.1547486
303.1544562
303.1665433
303.1599129
303.1601384
303.1667671
303.1546819
303.1549743
303.168406
303.1553302
303.1554591
303.1687336
303.1555122
303.1555124
303.1687338
303.1554595
303.1553306
303.1684063
303.1549747
303.1546823
303.1667675
303.1601388
303.1734078
303.1818433
303.1679351
303.1682219
303.183479
303.1685805
303.168703
303.183818
303.1687628
303.168763
303.1838183
303.1687034
303.1685809
303.1834793
303.1682222
303.1679354
303.1818437
303.1734081
303.1602338
303.1668632
303.1547766
303.1550691
303.1685014
303.1554246
303.1555533
303.1688291
303.1556067
303.1556068
303.1688294
303.1555537
303.155425
303.1685016
303.1550694
303.1547768
303.1668634
303.160234
303.1602705
303.166899
303.1548135
303.1551061
303.1685374
303.1554618
303.1555905
303.1688652
303.1556438
303.1556439
303.1688654
303.1555907
303.155462
303.1685376
303.1551063
303.1548136
303.1668991
303.1602705
303.1735427
303.1819804
303.1680691
303.168356
303.1836163
303.1687148
303.1688373
303.1839554
303.1688971
303.1688972
303.1839555
303.1688374
303.1687149
303.1836164
303.1683561
303.1680691
303.1819805
303.1735427
303.1602353
303.166864
303.154778
303.1550707
303.1685025
303.1554266
303.1555553
303.1688307
303.1556087
303.1556088
303.1688307
303.1555554
303.1554266
303.1685025
303.1550707
303.154778
303.1668639
303.1602353
303.1601933
303.1668224
303.1547359
303.1550287
303.1684611
303.1553847
303.1555134
303.1687895
303.1555669
303.1555669
303.1687895
303.1555134
303.1553846
303.1684611
303.1550286
303.1547359
303.1668223
303.1601932
303.1732795
303.1817165
303.1678062
303.1680931
303.1833522
303.1684522
303.1685747
303.183692
303.1686347
303.1686347
303.1836919
303.1685745
303.168452
303.1833521
303.1680929
303.1678059
303.1817162
303.1732791
303.1600537
303.1666819
303.1545973
303.1548902
303.1683217
303.1552466
303.1553754
303.16865
303.1554287
303.1554286
303.1686497
303.1553751
303.1552462
303.1683213
303.1548897
303.1545968
303.1666814
303.1600531
303.1590829
303.165715
303.1536267
303.1539189
303.1673515
303.1542748
303.1544034
303.1676799
303.1544569
303.1544567
303.1676795
303.1544029
303.1542742
303.1673509
303.1539182
303.1536259
303.1657141
303.1590819
303.1726777
303.1811109
303.1672047
303.1674917
303.182747
303.1678508
303.1679729
303.183087
303.1680332
303.168033
303.1830865
303.1679722
303.1678501
303.1827462
303.1674907
303.1672037
303.1811097
303.1726764
303.1634725
303.1701142
303.1580187
303.1583109
303.1717514
303.1586672
303.1587957
303.1720797
303.1588489
303.1588487
303.1720791
303.158795
303.1586663
303.1717504
303.1583098
303.1580174
303.1701128
303.163471
305.6614179
305.6673444
305.6439598
305.6444379
305.6707993
305.6452152
305.6454878
305.6713988
305.6455727
305.6455726
305.6713984
305.6454875
305.6452153
305.6708
305.6444394
305.643962
305.6673473
305.6614209
305.6601546
305.6694386
305.6427129
305.6431735
305.672869
305.6439531
305.6442104
305.6734857
305.6443083
305.6443082
305.6734854
305.6442101
305.6439533
305.6728697
305.6431749
305.642715
305.6694412
305.6601574
305.6413144
305.6472088
305.6239535
305.6244309
305.650662
305.6252063
305.6254828
305.6512549
305.6255625
305.6255625
305.6512546
305.6254827
305.6252065
305.6506626
305.624432
305.6239552
305.647211
305.6413166
305.6391466
305.6450297
305.6217984
305.6222736
305.6484749
305.6230481
305.6233261
305.649066
305.6234046
305.6234047
305.6490659
305.6233261
305.6230483
305.6484754
305.6222744
305.6217997
305.6450312
305.6391482
305.666229
305.6754944
305.6487772
305.649241
305.6789461
305.6500207
305.6502797
305.6795594
305.6503752
305.6503753
305.6795595
305.6502799
305.6500211
305.6789465
305.6492417
305.6487782
305.6754955
305.6662301
305.6404179
305.6462959
305.6230685
305.6235452
305.6497414
305.6243173
305.6245945
305.650332
305.6246732
305.6246734
305.6503322
305.6245949
305.6243177
305.6497419
305.6235458
305.6230692
305.6462967
305.6404186
305.6409396
305.6468082
305.6235886
305.6240653
305.6502553
305.6248375
305.6251146
305.6508446
305.6251929
305.6251931
305.650845
305.6251152
305.6248381
305.6502558
305.6240659
305.6235893
305.6468089
305.6409401
305.6668304
305.6761125
305.649377
305.6498405
305.6795631
305.6506192
305.6508775
305.6801748
305.6509727
305.650973
305.6801753
305.6508781
305.6506198
305.6795636
305.649841
305.6493775
305.676113
305.6668308
305.6412342
305.6471055
305.6238808
305.6243582
305.6505516
305.6251297
305.6254064
305.6511414
305.625485
305.6254852
305.6511418
305.6254069
305.6251302
305.650552
305.6243586
305.6238812
305.6471059
305.6412344
305.6413497
305.6472157
305.6239959
305.6244736
305.6506623
305.6252453
305.6255221
305.6512521
305.6256006
305.6256008
305.6512523
305.6255224
305.6252457
305.6506626
305.6244739
305.6239962
305.6472159
305.6413498
305.6672521
305.6765398
305.6497943
305.650258
305.679991
305.6510371
305.6512953
305.6806032
305.6513907
305.6513908
305.6806033
305.6512954
305.6510373
305.6799911
305.6502582
305.6497944
305.6765399
305.6672521
305.641367
305.6472333
305.6240114
305.6244892
305.6506802
305.6252613
305.6255381
305.6512707
305.6256169
305.625617
305.6512707
305.6255382
305.6252614
305.6506803
305.6244893
305.6240115
305.6472334
305.6413668
305.641353
305.647221
305.6239967
305.6244746
305.6506682
305.625247
305.6255237
305.6512591
305.6256026
305.6256027
305.6512591
305.6255237
305.625247
305.6506682
305.6244746
305.6239967
305.6472209
305.6413528
305.6667365
305.6760182
305.6492805
305.6497446
305.6794686
305.6505239
305.6507821
305.6800817
305.6508777
305.6508778
305.6800815
305.6507819
305.6505237
305.6794684
305.6497444
305.6492803
305.6760179
305.666736
305.6411094
305.6469796
305.6237537
305.6242312
305.6504285
305.6250045
305.6252809
305.6510196
305.62536
305.62536
305.6510193
305.6252805
305.6250041
305.6504281
305.6242307
305.6237531
305.6469789
305.6411084
305.6383412
305.6442222
305.6209992
305.621475
305.6476606
305.622246
305.6225221
305.6482511
305.6226011
305.622601
305.6482506
305.6225214
305.6222453
305.6476598
305.6214741
305.6209981
305.644221
305.6383397
305.6654551
305.6747324
305.6480032
305.6484668
305.6781827
305.649246
305.6495028
305.6787967
305.6495995
305.6495993
305.678796
305.6495019
305.6492451
305.6781816
305.6484655
305.6480017
305.6747307
305.6654531
305.652689
305.6585833
305.6352942
305.6357698
305.6620313
305.6365427
305.636819
305.6626218
305.6368977
305.6368976
305.6626211
305.6368181
305.6365416
305.66203
305.6357683
305.6352925
305.6585814
305.6526868
308.0556372
308.0573517
308.0196255
308.0200692
308.062664
308.0214104
308.0218336
308.0636289
308.0220119
308.0220119
308.0636284
308.0218333
308.0214106
308.0626649
308.020071
308.0196283
308.057355
308.0556406
308.0440909
308.051041
308.0082313
308.0086386
308.0563136
308.0099886
308.0103763
308.0573064
308.0105797
308.0105797
308.057306
308.010376
308.0099888
308.0563144
308.0086403
308.0082338
308.0510441
308.0440939
308.0143029
308.0160339
307.9786712
307.979119
308.0213345
307.9804543
307.9808825
308.0222907
307.9810538
307.9810538
308.0222904
307.9808824
307.9804546
308.0213353
307.9791205
307.9786732
308.0160365
308.0143053
308.0092743
308.0109823
307.9737037
307.9741486
308.0162646
307.9754808
307.975912
308.017218
307.9760812
307.9760814
308.017218
307.975912
307.9754811
308.0162653
307.9741497
307.9737053
308.0109841
308.009276
308.053254
308.0601781
308.0173644
308.0177764
308.0654906
308.0191279
308.0195186
308.0664797
308.0197198
308.01972
308.0664798
308.0195189
308.0191285
308.0654912
308.0177773
308.0173656
308.0601794
308.0532551
308.0115235
308.0132362
307.9759452
307.9763926
308.0185219
307.9777216
307.9781512
308.0194744
307.978321
307.9783213
308.0194747
307.9781518
307.9777223
308.0185226
307.9763934
307.9759461
308.0132372
308.0115242
308.0124432
308.0141262
307.9768588
307.9773067
308.0194151
307.9786358
307.9790654
308.0203656
307.9792343
307.9792347
308.0203662
307.9790662
307.9786366
308.0194158
307.9773075
307.9768596
308.014127
308.0124437
308.0542265
308.0611764
308.0183348
308.0187469
308.0664869
308.0200965
308.0204863
308.0674734
308.0206868
308.0206873
308.067474
308.0204871
308.0200974
308.0664876
308.0187476
308.0183355
308.061177
308.0542268
308.0131318
308.0148251
307.9775387
307.9779877
308.020113
307.9793159
307.9797447
308.0210643
307.9799142
307.9799146
308.0210648
307.9797454
307.9793166
308.0201136
307.9779883
307.9775393
308.0148256
308.0131319
308.0133358
308.0150127
307.9777409
307.9781906
308.0203014
307.979519
307.979948
308.0212527
307.9801174
307.9801177
308.0212529
307.9799484
307.9795195
308.0203018
307.978191
307.9777413
308.015013
308.0133357
308.0551443
308.062102
308.0192396
308.0196519
308.0674139
308.0210026
308.0213919
308.0684012
308.0215926
308.0215929
308.0684012
308.0213921
308.0210029
308.0674142
308.0196522
308.0192398
308.0621021
308.0551441
308.0134775
308.0151559
307.9778773
307.9783271
308.0204452
307.9796563
307.9800853
308.0213975
307.9802549
307.9802551
308.0213974
307.9800853
307.9796565
308.0204454
307.9783273
307.9778775
308.015156
308.0134772
308.0135835
308.0152667
307.9779794
307.9784293
308.020557
307.979759
307.9801878
308.02151
307.9803578
307.980358
308.0215099
307.9801877
307.9797591
308.0205571
307.9784294
307.9779795
308.0152666
308.0135831
308.0542749
308.0612231
308.0183741
308.0187868
308.0665326
308.0201373
308.0205269
308.0675207
308.0207278
308.0207279
308.0675205
308.0205267
308.0201372
308.0665324
308.0187867
308.0183739
308.0612228
308.0542742
308.01325
308.0149312
307.9776454
307.9780946
308.0202248
307.979426
307.9798544
308.0211782
307.9800248
307.9800249
308.0211779
307.979854
307.9794256
308.0202244
307.978094
307.9776447
308.0149304
308.0132487
308.0078748
308.009591
307.9723212
307.9727675
308.0148622
307.9740934
307.9745207
308.0158136
307.9746907
307.9746907
308.015813
307.97452
307.9740927
308.0148613
307.9727664
307.9723199
308.0095895
308.0078729
308.0522439
308.0591871
308.0163566
308.0167686
308.0644979
308.0181196
308.0185065
308.0654872
308.018709
308.0187089
308.0654865
308.0185056
308.0181185
308.0644966
308.0167672
308.0163548
308.059185
308.0522412
308.0376829
308.0393728
308.0018964
308.0023385
308.04467
308.0036698
308.0040988
308.0456226
308.0042688
308.0042687
308.0456217
308.0040977
308.0036687
308.0446686
308.0023368
308.0018943
308.0393703
308.03768
310.3334829
310.3285425
310.272751
310.272868
310.3355403
310.2749219
310.2754838
310.3369431
310.275813
310.2758131
310.3369425
310.2754834
310.2749222
310.3355413
310.2728699
310.2727539
310.328546
310.3334862
310.3077768
310.3105572
310.2474821
310.2475374
310.3175049
310.249613
310.2501156
310.3189458
310.2504794
310.2504796
310.3189453
310.2501153
310.2496133
310.3175058
310.2475392
310.2474847
310.3105604
310.3077798
310.26382
310.2590296
310.2040349
310.2041734
310.2660063
310.2062127
310.2067801
310.2674006
310.2071009
310.2071011
310.2674003
310.20678
310.2062131
310.2660072
310.2041749
310.2040371
310.2590321
310.2638223
310.2546995
310.249871
310.1950786
310.1952155
310.2568154
310.1972472
310.1978193
310.2582055
310.1981368
310.1981371
310.2582054
310.1978193
310.1972476
310.2568161
310.1952167
310.1950802
310.2498729
310.254701
310.3196204
310.3223791
310.2592765
310.2593373
310.3293885
310.2614164
310.2619224
310.3308263
310.2622855
310.2622859
310.3308264
310.2619227
310.261417
310.3293892
310.2593383
310.2592777
310.3223804
310.3196213
310.2582039
310.2534012
310.1985604
310.1987001
310.2603528
310.2007278
310.2012976
310.261741
310.2016157
310.2016162
310.2617414
310.2012982
310.2007287
310.2603536
310.198701
310.1985614
310.2534022
310.2582044
310.2596069
310.2547404
310.1999491
310.2000902
310.2616975
310.2021179
310.2026879
310.2630828
310.2030047
310.2030053
310.2630834
310.2026888
310.2021189
310.2616983
310.2000911
310.19995
310.2547412
310.2596072
310.3210498
310.323849
310.2607037
310.260765
310.3308545
310.2628406
310.2633453
310.3322884
310.2637075
310.2637081
310.3322891
310.2633463
310.2628416
310.3308553
310.2607658
310.2607045
310.3238497
310.32105
310.2609005
310.256057
310.2012206
310.2013627
310.2630133
310.2033895
310.2039582
310.2643994
310.2042757
310.2042762
310.2643999
310.203959
310.2033904
310.2630141
310.2013634
310.2012212
310.2560575
310.2609004
310.2611785
310.2563014
310.2014948
310.2016384
310.2632588
310.2036653
310.2042343
310.2646449
310.2045518
310.2045522
310.2646452
310.2042348
310.203666
310.2632594
310.2016389
310.2014953
310.2563017
310.2611782
310.3226595
310.3254681
310.2622836
310.2623449
310.3324766
310.2644222
310.2649264
310.3339111
310.2652884
310.2652888
310.3339111
310.2649266
310.2644226
310.332477
310.2623453
310.2622839
310.3254683
310.3226591
310.2615062
310.2566315
310.2018103
310.2019538
310.26359
310.2039819
310.204551
310.2649774
310.2048686
310.2048689
310.2649773
310.2045511
310.2039822
310.2635903
310.2019541
310.2018106
310.2566316
310.2615057
310.2618608
310.2569944
310.2021535
310.2022968
310.2639554
310.2043262
310.2048949
310.2653438
310.2052131
310.2052134
310.2653437
310.2048949
310.2043264
310.2639556
310.202297
310.2021537
310.2569945
310.2618602
310.3213409
310.3241356
310.2609726
310.2610343
310.331139
310.2631108
310.2636155
310.3325745
310.2639776
310.2639779
310.3325743
310.2636154
310.2631109
310.331139
310.2610343
310.2609726
310.3241354
310.32134
310.2614661
310.2565892
310.201754
310.2018965
310.2635557
310.203929
310.2044971
310.2649453
310.2048163
310.2048165
310.2649449
310.2044967
310.2039287
310.2635553
310.201896
310.2017534
310.2565883
310.2614646
310.2528235
310.2480256
310.1932327
310.1933712
310.2549545
310.1953935
310.1959596
310.2563398
310.1962775
310.1962777
310.2563392
310.1959589
310.1953929
310.2549536
310.1933702
310.1932313
310.2480239
310.252821
310.3184776
310.3212584
310.2581378
310.2581993
310.3282658
310.2602772
310.260779
310.3297016
310.2611418
310.2611418
310.3297009
310.2607781
310.2602763
310.3282645
310.2581977
310.2581359
310.3212559
310.3184744
310.3031784
310.2982615
310.2429887
310.2431116
310.3052362
310.2451458
310.245715
310.3066252
310.2460348
310.2460349
310.3066243
310.245714
310.2451447
310.3052347
310.2431098
310.2429864
310.2982587
310.3031748
312.4779606
312.4635711
312.3872571
312.386755
312.4719374
312.3896734
312.3903393
312.4738929
312.390908
312.3909082
312.4738921
312.3903388
312.3896737
312.4719382
312.3867568
312.3872598
312.4635743
312.4779634
312.4342741
312.4302813
312.3444789
312.3438858
312.4385962
312.3468443
312.3474193
312.4406058
312.3480352
312.3480354
312.4406051
312.3474189
312.3468446
312.438597
312.3438875
312.3444814
312.4302842
312.4342766
312.3739144
312.3599275
312.2850703
312.2846255
312.3682727
312.2875153
312.288189
312.3702187
312.2887444
312.2887447
312.3702182
312.2881888
312.2875156
312.3682734
312.2846269
312.2850723
312.3599298
312.3739162
312.3596621
312.3456252
312.2711527
312.2707115
312.3539218
312.2735859
312.2742668
312.3558614
312.2748165
312.2748169
312.3558612
312.2742668
312.2735863
312.3539224
312.2707126
312.2711542
312.3456269
312.3596632
312.4481474
312.4441487
312.3582987
312.3577116
312.4525491
312.3606754
312.3612542
312.454555
312.3618704
312.361871
312.4545551
312.3612546
312.360676
312.4525496
312.3577124
312.3582998
312.4441498
312.4481479
312.3647003
312.3507214
312.2761424
312.2757029
312.3590292
312.2785725
312.2792498
312.3609651
312.2798003
312.279801
312.3609656
312.2792505
312.2785734
312.3590299
312.2757037
312.2761434
312.3507222
312.3647004
312.3666849
312.3525927
312.2780993
312.2776624
312.360909
312.2805319
312.2812097
312.3628409
312.2817584
312.2817591
312.3628416
312.2812107
312.280533
312.3609099
312.2776632
312.2781001
312.3525934
312.3666849
312.4501288
312.4461913
312.3602782
312.3596914
312.4545841
312.3626494
312.3632261
312.4565842
312.3638409
312.3638416
312.4565849
312.3632272
312.3626505
312.4545849
312.3596923
312.360279
312.4461919
312.4501287
312.3687699
312.3547182
312.2801394
312.2797027
312.3630337
312.2825713
312.2832472
312.3649662
312.2837967
312.2837975
312.3649668
312.2832481
312.2825723
312.3630345
312.2797034
312.2801401
312.3547187
312.3687696
312.3690764
312.3549674
312.2804409
312.2800065
312.3632842
312.2828752
312.2835517
312.3652168
312.284101
312.2841016
312.3652171
312.2835522
312.282876
312.3632848
312.2800072
312.2804414
312.3549677
312.3690759
312.4526097
312.4486836
312.3627025
312.3621152
312.4570815
312.3650758
312.3656518
312.459082
312.3662663
312.3662668
312.459082
312.365652
312.3650763
312.4570819
312.3621157
312.362703
312.4486837
312.452609
312.3696334
312.3555276
312.2809749
312.2805402
312.3638462
312.2834107
312.2840873
312.3657805
312.284637
312.2846374
312.3657803
312.2840874
312.2834111
312.3638466
312.2805406
312.2809753
312.3555278
312.3696327
312.3703961
312.356303
312.281711
312.2812755
312.3646262
312.2841485
312.2848245
312.3665621
312.2853752
312.2853756
312.3665619
312.2848245
312.2841489
312.3646264
312.2812759
312.2817114
312.3563032
312.3703954
312.4507236
312.4467785
312.360831
312.3602439
312.455168
312.3632031
312.3637797
312.4571698
312.3643943
312.3643947
312.4571695
312.3637797
312.3632033
312.4551681
312.3602441
312.3608311
312.4467784
312.4507226
312.3699071
312.3557863
312.2812108
312.2807742
312.364118
312.2836521
312.2843276
312.3660559
312.2848798
312.2848802
312.3660555
312.2843274
312.283652
312.3641177
312.2807739
312.2812103
312.3557855
312.3699053
312.3575344
312.3435615
312.2690656
312.268625
312.3518386
312.2714866
312.2721586
312.3537694
312.2727085
312.2727088
312.3537688
312.2721581
312.2714861
312.3518378
312.268624
312.2690643
312.3435597
312.3575315
312.4470059
312.4430322
312.3571613
312.3565752
312.4514301
312.3595368
312.3601106
312.4534319
312.3607252
312.3607255
312.4534311
312.3601097
312.359536
312.4514288
312.3565736
312.3571593
312.4430296
312.4470022
312.4326844
312.4184244
312.3430259
312.3425471
312.4267639
312.3454313
312.346108
312.4287026
312.3466633
312.3466635
312.4287018
312.346107
312.3454303
312.4267624
312.3425453
312.3430235
312.4184213
312.4326802
314.4878183
314.4616929
314.36278
314.3614
314.4711223
314.3653693
314.3661034
314.4737764
314.3670156
314.3670159
314.4737755
314.3661027
314.3653693
314.4711227
314.3614014
314.3627823
314.4616956
314.4878204
314.4231169
314.4102188
314.2996625
314.2981594
314.4196106
314.3021946
314.3027978
314.422338
314.3037734
314.3037738
314.4223372
314.3027972
314.3021947
314.419611
314.2981608
314.2996646
314.4102213
314.4231187
314.3443504
314.3190133
314.2224691
314.2212053
314.3284364
314.2251231
314.2258728
314.3310748
314.2267586
314.2267591
314.3310742
314.2258724
314.2251233
314.3284368
314.2212063
314.2224708
314.3190152
314.3443517
314.3241323
314.2987404
314.2028308
314.2015808
314.3080979
314.2054718
314.2062328
314.3107258
314.2071082
314.2071088
314.3107255
314.2062328
314.2054721
314.3080982
314.2015816
314.2028321
314.2987417
314.3241328
314.438423
314.4255539
314.3149335
314.3134372
314.4350561
314.3174784
314.3180863
314.4377768
314.3190623
314.319063
314.4377768
314.3180865
314.3174789
314.4350564
314.3134379
314.3149344
314.4255548
314.438423
314.3310239
314.3057348
314.2096328
314.208381
314.3151066
314.2122665
314.2130217
314.3177287
314.2138989
314.2138997
314.3177291
314.2130224
314.2122673
314.3151071
314.2083817
314.2096336
314.3057355
314.3310237
314.3337259
314.3082575
314.2122854
314.2110382
314.3176418
314.2149233
314.2156795
314.3202583
314.2165541
314.2165551
314.320259
314.2156805
314.2149244
314.3176425
314.2110389
314.2122862
314.3082581
314.3337255
314.4410595
314.4282754
314.3175687
314.3160722
314.4377638
314.3201036
314.3207084
314.4404757
314.3216821
314.321683
314.4404765
314.3207095
314.3201048
314.4377646
314.316073
314.3175696
314.4282759
314.4410591
314.3367556
314.3113514
314.2152374
314.2139881
314.320734
314.2178727
314.2186259
314.323351
314.2195019
314.2195028
314.3233515
314.2186268
314.2178738
314.3207347
314.2139889
314.2152382
314.3113518
314.3367549
314.3370203
314.3115297
314.2154982
314.2142528
314.3209137
314.218137
314.2188912
314.3235307
314.2197667
314.2197674
314.3235309
314.2188917
314.2181378
314.3209143
314.2142534
314.2154988
314.3115299
314.3370194
314.4445541
314.4317798
314.3209693
314.3194708
314.4412758
314.3235064
314.3241098
314.4439884
314.3250837
314.3250843
314.4439882
314.32411
314.323507
314.4412762
314.3194713
314.3209698
314.4317799
314.444553
314.3378147
314.3123277
314.2162556
314.2150091
314.3217144
314.2188961
314.2196504
314.3243338
314.2205266
314.2205272
314.3243335
314.2196505
314.2188966
314.3217148
314.2150097
314.2162562
314.312328
314.3378137
314.339148
314.3136774
314.2175364
314.2162879
314.3230711
314.2201793
314.2209326
314.3256931
314.2218106
314.2218112
314.3256928
314.2209326
314.2201797
314.3230715
314.2162885
314.217537
314.3136777
314.339147
314.4419775
314.4291834
314.3184185
314.3169203
314.4386678
314.3209541
314.3215583
314.4413821
314.3225322
314.3225328
314.4413818
314.3215582
314.3209544
314.438668
314.3169207
314.3184189
314.4291835
314.4419763
314.3384794
314.3129531
314.2168501
314.2156007
314.3223597
314.2194993
314.2202523
314.3249848
314.2211325
314.221133
314.3249845
314.2202521
314.2194993
314.3223595
314.2156005
314.2168498
314.3129524
314.3384773
314.3220735
314.2967907
314.2008134
314.1995605
314.306125
314.2034356
314.2041834
314.3087398
314.2050598
314.2050603
314.3087393
314.2041829
314.2034353
314.3061243
314.1995597
314.2008122
314.2967889
314.3220704
314.4373845
314.4245436
314.3138985
314.3124033
314.4340415
314.3164406
314.3170418
314.4367561
314.3180159
314.3180163
314.4367553
314.3170411
314.3164399
314.4340403
314.3124019
314.3138966
314.4245409
314.4373803
314.4254669
314.3996387
314.3021781
314.3008512
314.4090453
314.3047651
314.3055186
314.4116756
314.3064072
314.3064076
314.4116748
314.3055177
314.3047642
314.4090439
314.3008494
314.3021757
314.3996355
314.4254622
316.3675656
316.3283901
316.2046632
316.2022011
316.338649
316.2074359
316.2082243
316.3421788
316.2095701
316.2095706
316.3421777
316.2082235
316.2074357
316.3386492
316.2022022
316.2046652
316.3283925
316.3675671
316.2800258
316.2572739
316.1195747
316.1169566
316.2675278
316.1222856
316.1228979
316.2711527
316.1243235
316.124324
316.2711517
316.1228972
316.1222855
316.2675279
316.1169576
316.1195766
316.257276
316.280027
316.1806657
316.1427894
316.022618
316.0203551
316.1530754
316.0255038
316.0263184
316.1565774
316.0276193
316.0276199
316.1565767
316.0263179
316.0255037
316.1530755
316.0203559
316.0226195
316.1427911
316.1806665
316.1538533
316.115925
315.9967075
315.9944741
316.126128
315.9995798
316.0004116
316.1296141
316.001695
316.0016958
316.1296137
316.0004114
315.9995799
316.1261281
315.9944747
315.9967086
316.1159261
316.1538535
316.2963256
316.2736586
316.1358831
316.1332732
316.2840489
316.1386064
316.1392245
316.2876615
316.14065
316.1406509
316.2876615
316.1392247
316.1386068
316.284049
316.1332736
316.1358839
316.2736594
316.2963253
316.1629313
316.1251559
316.0056357
316.0033946
316.1353745
316.0084935
316.0093168
316.1388513
316.010603
316.010604
316.1388517
316.0093174
316.0084943
316.1353749
316.0033951
316.0056364
316.1251565
316.1629308
316.1665288
316.1284937
316.0091504
316.0069158
316.1387299
316.0120145
316.0128391
316.1421993
316.0141223
316.0141235
316.1422
316.0128401
316.0120156
316.1387305
316.0069165
316.0091512
316.1284943
316.1665282
316.2997704
316.2772181
316.1393257
316.1367142
316.2875851
316.1420325
316.1426458
316.2911851
316.1440678
316.144069
316.2911859
316.142647
316.1420338
316.2875859
316.136715
316.1393266
316.2772187
316.2997698
316.1706146
316.1326706
316.013116
316.0108759
316.1429032
316.0159745
316.0167948
316.146373
316.0180798
316.0180809
316.1463735
316.0167957
316.0159756
316.1429039
316.0108767
316.0131167
316.132671
316.1706136
316.1707568
316.1326953
316.0132593
316.011025
316.1429291
316.0161225
316.0169443
316.1463986
316.0182286
316.0182294
316.1463987
316.0169447
316.0161232
316.1429296
316.0110256
316.0132598
316.1326954
316.1707554
316.3043627
316.2818154
316.1437772
316.1411616
316.2921929
316.1464863
316.1470975
316.2957941
316.1485203
316.148521
316.2957937
316.1470976
316.1464868
316.2921932
316.1411622
316.1437777
316.2818154
316.3043612