/*--------------------------------*- C++ -*----------------------------------*\
  =========                 |
  \\      /  F ield         | OpenFOAM: The Open Source CFD Toolbox
   \\    /   O peration     | Website:  https://openfoam.org
    \\  /    A nd           | Version:  7
     \\/     M anipulation  |
\*---------------------------------------------------------------------------*/
FoamFile
{
    version     2.0;
    format      ascii;
    class       volScalarField;
    location    "2";
    object      Tavg;
}
// * * * * * * * * * * * * * * * * * * * * * * * * * * * * * * * * * * * * * //

dimensions      [0 0 0 1 0 0 0];

internalField   nonuniform List<scalar> 
10692
(
4.163336342e-17
0
-8.326672685e-17
5.551115123e-17
-5.551115123e-16
-1.387778781e-16
1.734723476e-16
0
-3.489894342e-16
-1.566145283e-15
-2.220446049e-16
-1.110223025e-16
2.775557562e-17
-2.220446049e-16
1.484923295e-15
-6.938893904e-16
0
-1.33226763e-15
0
1.776356839e-15
-3.330669074e-16
-3.330669074e-16
0
-1.998401444e-15
1.776356839e-15
0
-4.247850027e-15
4.247850027e-15
0
-1.110223025e-16
-7.882583475e-15
1.776356839e-15
1.110223025e-16
2.220446049e-16
-1.776356839e-15
6.661338148e-16
-1.040834086e-16
-1.33226763e-15
1.526556659e-16
1.45716772e-16
-1.221245327e-15
2.775557562e-16
-1.387778781e-16
-3.330669074e-16
-4.203570431e-17
-1.26247635e-15
-3.330669074e-16
-8.187894807e-16
5.551115123e-17
-1.776356839e-15
8.396061624e-16
-3.191891196e-16
-7.771561172e-16
1.262878691e-15
2.081668171e-17
-1.110223025e-16
6.383782392e-16
3.747002708e-16
3.330669074e-16
4.163336342e-17
4.024558464e-16
5.551115123e-16
7.632783294e-17
-4.371503159e-16
0
-3.053113318e-16
3.747002708e-16
2.442490654e-15
-1.249000903e-16
-1.408595462e-15
2.220446049e-16
6.938893904e-16
3.330669074e-16
-1.776356839e-15
-1.776356839e-15
-2.553512957e-15
0
0
4.440892099e-16
1.776356839e-15
2.220446049e-16
-6.661338148e-16
-3.552713679e-15
-3.330669074e-16
1.110223025e-16
-3.552713679e-15
1.243449788e-14
2.220446049e-16
3.552713679e-15
8.54871729e-15
3.816391647e-16
2.109423747e-15
-2.983724379e-16
9.020562075e-17
-7.771561172e-16
1.387778781e-17
3.330669074e-16
3.330669074e-16
5.620504062e-16
-7.494005416e-16
-6.661338148e-16
-8.465450563e-16
-1.942890293e-16
4.440892099e-16
1.74166237e-15
-2.220446049e-16
4.440892099e-16
2.081668171e-17
2.081668171e-17
4.440892099e-15
4.163336342e-17
-2.844946501e-16
5.551115123e-16
-2.289834988e-16
3.469446952e-16
1.110223025e-16
-4.163336342e-16
-4.30211422e-16
1.110223025e-16
1.595945598e-16
-7.008282843e-16
2.220446049e-16
5.204170428e-16
3.955169525e-16
0
7.077671782e-16
-2.220446049e-16
-1.776356839e-15
5.551115123e-16
-2.220446049e-16
-1.776356839e-15
3.330669074e-16
1.887379142e-15
0
-1.40024874e-16
4.358872368e-15
1.776356839e-15
-1.110223025e-16
-7.993605777e-15
1.776356839e-15
0
4.107825191e-15
-1.776356839e-15
4.440892099e-16
-3.351116446e-16
-1.690273887e-16
-5.306077014e-16
-1.318389842e-16
-2.220446049e-16
1.816512792e-16
5.917847332e-16
1.400248738e-16
1.084479196e-15
-8.574414743e-16
-4.691939275e-15
-2.38402464e-16
-7.449087282e-16
4.329869796e-15
-5.748986066e-17
-5.085179478e-16
-3.774758284e-15
1.315942763e-15
-1.573084179e-15
4.387874882e-15
-1.058399003e-15
-1.408595462e-15
-7.993605777e-15
3.942769148e-16
-1.978751411e-18
-4.691939275e-15
7.42896983e-16
2.659106807e-15
-4.078822619e-15
2.800358274e-16
3.714155002e-17
1.221245327e-14
3.142289351e-16
2.652636164e-15
3.663735981e-15
1.63248662e-17
-4.440892099e-16
-1.776356839e-15
-2.220446049e-16
-6.661338148e-16
-3.552713679e-15
-1.110223025e-16
-1.110223025e-16
-1.776356839e-15
-4.440892099e-15
3.996802889e-15
1.776356839e-15
0
-4.440892099e-15
0
-3.330669074e-16
7.993605777e-15
0
-8.326672685e-15
2.498001805e-16
-1.110223025e-16
-2.775557562e-16
5.134781489e-16
-1.110223025e-16
7.632783294e-16
-5.898059818e-16
0
4.668846443e-16
-5.055101009e-17
1.110223025e-16
6.730727087e-16
-2.91433544e-16
-5.551115123e-16
4.857225733e-16
-1.207367539e-15
-4.440892099e-16
2.851885395e-15
-2.081668171e-17
8.54871729e-15
-8.604228441e-16
-4.787836794e-16
-1.110223025e-16
-9.992007222e-16
8.257283746e-16
1.110223025e-16
-1.170192996e-15
5.996997096e-17
-4.440892099e-16
3.538835891e-16
4.093947403e-16
-1.110223025e-16
-1.526556659e-16
-7.285838599e-16
-4.662936703e-15
-3.469446952e-16
-3.330669074e-16
0
1.443289932e-15
-2.775557562e-15
0
2.220446049e-16
4.440892099e-16
0
-2.220446049e-16
1.254552018e-14
-3.552713679e-15
1.110223025e-16
3.996802889e-15
0
8.215650382e-15
3.996802889e-15
0
7.993605777e-15
1.471045508e-15
3.996802889e-15
6.52256027e-16
2.775557562e-16
3.663735981e-15
5.273559367e-16
-5.551115123e-17
4.107825191e-15
-4.371173109e-16
2.84461645e-16
0
3.03923553e-15
-1.235123115e-15
3.996802889e-15
-1.533495553e-15
-1.498801083e-15
7.993605777e-15
3.469446952e-16
3.122502257e-16
-4.107825191e-15
1.387778781e-17
-1.45716772e-16
0
-1.387778781e-17
2.775557562e-17
0
-4.183123472e-16
3.742042527e-15
0
7.008282843e-16
-4.371503159e-16
3.330669074e-16
-3.747002708e-16
1.242062009e-15
4.107825191e-15
4.163336342e-17
-2.220446049e-16
-1.776356839e-15
-9.992007222e-16
-3.330669074e-16
0
-1.110223025e-16
3.330669074e-16
1.776356839e-15
-1.110223025e-16
4.329869796e-15
-3.552713679e-15
3.330669074e-16
4.329869796e-15
-3.552713679e-15
8.54871729e-15
3.663735981e-15
-1.776356839e-15
7.66053887e-15
-6.800116026e-16
3.330669074e-16
1.568190022e-15
-6.938893904e-17
1.587618925e-14
-1.047772979e-15
-6.938893904e-18
-3.330669074e-16
5.104966637e-16
1.203410131e-15
-7.993605777e-15
-1.45716772e-16
2.241262731e-15
-7.549516567e-15
9.714451465e-17
-4.30211422e-16
2.220446049e-16
-1.443289932e-15
0
-1.776356839e-15
5.551115123e-16
-1.110223025e-16
-1.776356839e-15
-3.996802889e-15
4.329869796e-15
-3.552713679e-15
-2.80538954e-16
4.61040875e-15
-1.776356839e-15
0
-8.215650382e-15
0
-3.330669074e-16
3.330669074e-16
0
1.709743458e-14
0
303.1386889
0
-1.776356839e-15
303.1370664
-1.776356839e-15
0
303.1374407
0
-1.776356839e-15
303.1374405
-1.776356839e-15
1.776356839e-15
303.1370667
-1.776356839e-15
-3.552713679e-15
303.1386905
0
-7.186623357e-16
0
2.010326579e-15
-2.448453443e-15
0
-6.334234191e-15
-7.771561172e-16
-1.776356839e-15
-6.439293543e-15
2.997602166e-15
-1.776356839e-15
-9.799777653e-15
-9.325873407e-15
-3.552713679e-15
7.684388686e-15
-4.107825191e-15
0
-9.992007222e-16
-1.110223025e-16
-1.776356839e-15
-1.221245327e-15
1.33226763e-15
0
1.998401444e-15
-3.330669074e-15
-1.776356839e-15
7.711934227e-16
5.22401091e-15
0
-3.996802889e-15
6.106226635e-15
0
1.310063169e-14
-1.587618925e-14
-1.776356839e-15
1.110223025e-15
-1.776356839e-15
303.1364333
1.776356839e-15
0
303.1348146
-1.776356839e-15
1.776356839e-15
303.1351879
-1.776356839e-15
-1.776356839e-15
303.1351879
-1.776356839e-15
1.776356839e-15
303.1348149
0
1.776356839e-15
303.136434
-1.776356839e-15
2.360715333e-15
0
5.469906386e-15
-1.554312234e-15
0
1.110225056e-16
4.218847494e-15
-3.552713679e-15
-2.688387076e-15
1.110223025e-16
-3.552713679e-15
-1.87545287e-15
6.550315845e-15
-1.776356839e-15
1.192521378e-17
-2.331468352e-15
-3.552713679e-15
8.215650382e-15
3.885780586e-15
-1.776356839e-15
-1.443289932e-15
-3.108624469e-15
-1.776356839e-15
-2.442490654e-15
5.995204333e-15
0
4.662936703e-15
-1.110223025e-16
-1.776356839e-15
-6.77236045e-15
-8.326672685e-15
0
-9.992007222e-15
7.993605777e-15
-1.776356839e-15
8.326672685e-15
-1.776356839e-15
303.1370019
0
0
303.1353826
0
0
303.1357549
-1.776356839e-15
-1.776356839e-15
303.1357552
-1.776356839e-15
1.776356839e-15
303.1353829
0
-1.776356839e-15
303.1370022
-3.552713679e-15
-4.692183699e-15
0
-5.218048216e-15
7.711932464e-16
0
2.23237234e-15
8.707444456e-15
-1.776356839e-15
1.325935888e-14
-9.151533687e-15
0
-8.437694987e-15
-4.107825191e-15
0
-4.107825191e-15
5.622668511e-15
1.776356839e-15
1.221245327e-14
4.026049884e-15
-1.776356839e-15
4.996003611e-15
-2.880616993e-15
1.776356839e-15
-1.264461642e-14
-4.82166387e-15
-1.776356839e-15
2.458971237e-16
-4.797811525e-15
-1.776356839e-15
-4.440892099e-16
8.659739592e-15
-3.552713679e-15
4.440892099e-16
-2.693895058e-14
-1.776356839e-15
-4.107825191e-15
0
303.1371384
0
-3.552713679e-15
303.1355189
0
-1.776356839e-15
303.1358914
0
0
303.1358915
-1.776356839e-15
-1.776356839e-15
303.135519
-3.552713679e-15
1.776356839e-15
303.1371384
-1.776356839e-15
3.856533588e-15
0
-3.570602016e-15
6.001167205e-15
1.776356839e-15
8.572569695e-15
-7.018257461e-15
1.776356839e-15
8.248610584e-16
4.107825148e-15
-1.776356839e-15
7.969753372e-15
3.330669074e-16
0
2.287882868e-14
-1.390163891e-14
0
-9.151554325e-15
8.54871729e-15
0
7.882583475e-15
-1.032507413e-14
-1.776356839e-15
-2.442490654e-15
9.103828802e-15
-1.776356839e-15
-1.310063169e-14
-4.662936703e-15
0
3.552713679e-15
8.770761895e-15
-1.776356839e-15
-1.554312234e-15
-7.993605777e-15
-3.552713679e-15
9.103828802e-15
0
303.1369662
0
1.776356839e-15
303.135347
0
1.776356839e-15
303.1357198
0
1.776356839e-15
303.1357197
0
1.776356839e-15
303.1353469
0
-3.552713679e-15
303.1369659
-1.776356839e-15
4.440892099e-15
0
5.107025913e-15
-1.110223025e-15
1.776356839e-15
1.875452226e-15
-2.385212351e-17
0
9.358828405e-16
-3.569210535e-16
-3.552713679e-15
9.151530885e-15
-4.551914401e-15
0
-4.107825191e-15
-4.908832127e-15
-1.776356839e-15
2.241092494e-14
2.220446049e-16
-1.776356839e-15
-4.218847494e-15
-8.881784197e-16
0
-3.330669074e-16
3.330669074e-16
0
-3.750908009e-15
-5.019853886e-15
-1.776356839e-15
-3.330669074e-16
-8.770761895e-15
0
-4.662936703e-15
1.33226763e-14
0
-5.884182031e-15
0
303.1379302
-1.776356839e-15
1.776356839e-15
303.1363094
1.776356839e-15
-1.776356839e-15
303.136682
-1.776356839e-15
0
303.1366816
0
0
303.1363087
-1.776356839e-15
-1.776356839e-15
303.137929
-1.776356839e-15
-7.771561172e-15
0
-2.163376047e-14
1.754152379e-14
0
3.885780586e-15
-8.326672685e-15
-1.776356839e-15
7.026541767e-15
1.633197825e-15
0
-1.042051312e-14
2.25375274e-14
-1.776356839e-15
1.747821838e-14
1.554312234e-14
0
-8.54871729e-15
-8.575501429e-17
2.97209672e-17
1.557467934e-16
5.943634162e-17
6.661338148e-16
3.026309552e-17
-3.816391647e-16
2.220446049e-15
3.667739923e-16
-3.742312944e-16
-2.220446049e-16
-6.573720837e-16
5.89287412e-16
1.554312234e-15
1.401656569e-15
-2.359223927e-16
1.221245327e-15
-1.304512054e-15
-8.130194035e-17
-1.776356839e-15
6.931698839e-18
-8.881784197e-16
0
-1.198621216e-15
2.125116074e-15
0
-4.336801932e-15
2.116355883e-15
1.776356839e-15
-7.320539964e-15
-6.347497976e-16
0
0
-3.330669074e-15
-1.776356839e-15
-1.221245327e-15
4.464689483e-17
-1.110223025e-16
-1.902864152e-16
-3.076862821e-17
7.771561172e-16
5.274327112e-16
-2.081669572e-16
1.111135072e-15
9.722129705e-17
2.471385374e-16
-1.338286077e-15
1.900344191e-15
6.210026266e-16
7.842116622e-18
8.86352562e-16
9.983645895e-16
-3.4693045e-16
-3.007528812e-16
-2.111803485e-16
-1.117153961e-15
3.786261977e-16
-3.469446952e-17
9.992007222e-16
3.847288552e-16
-5.523729312e-16
1.110223025e-16
-1.47816936e-16
-1.156695118e-15
-1.17951963e-16
1.103284131e-15
-1.06192514e-15
1.998401444e-15
-6.756308135e-17
-9.197832566e-16
-1.110223025e-16
-7.330652993e-16
-5.846011099e-16
0
1.040929176e-16
1.04092735e-16
-1.776356839e-15
5.693501496e-15
-2.345328294e-15
-1.776356839e-15
1.068860711e-15
3.878850582e-15
0
-8.909504082e-15
1.324301806e-14
1.776356839e-15
1.366960197e-14
6.77236045e-15
-3.552713679e-15
8.54871729e-15
-2.505766652e-16
4.884981308e-15
-5.780283251e-16
3.878186051e-16
3.235328879e-15
-3.546429053e-16
2.636779683e-16
3.339421883e-15
6.950769056e-16
3.142292159e-16
-4.912701906e-15
2.802940896e-16
-1.989548147e-15
-8.794262047e-16
9.687065148e-16
4.718447855e-16
-1.11715445e-15
-1.751614837e-15
-2.453494076e-16
-4.718157113e-16
1.565815345e-16
1.973787793e-16
-4.454752284e-15
-8.14412028e-17
4.217539693e-16
3.457375034e-15
-4.43782269e-16
6.982435381e-16
7.771561172e-16
4.649058916e-16
1.585969474e-15
-1.124083211e-15
3.107314378e-16
1.630640067e-15
-9.020416708e-16
-1.215063539e-15
-3.625566077e-16
-1.776356839e-15
-9.992005393e-16
7.771561172e-16
0
2.236129548e-15
5.273899905e-16
-1.776356839e-15
1.285293934e-16
2.359054307e-16
0
-9.159271847e-15
-7.740194175e-15
0
-4.648793256e-16
7.105427358e-15
-1.776356839e-15
7.327471963e-15
-5.943644203e-17
-5.689864382e-15
-5.216044287e-16
-3.747002708e-16
2.289748551e-16
3.016286777e-17
8.213182696e-16
1.003723661e-14
-5.164912359e-16
1.620995078e-15
-8.54871729e-15
1.683413081e-15
6.582821854e-16
-1.221245327e-15
-6.509797821e-16
-9.014179448e-16
2.352263701e-15
5.020115329e-16
-5.85880691e-16
1.474671106e-15
2.880891635e-16
-8.827581986e-16
-5.082589181e-15
8.133451624e-16
1.311305708e-15
-7.077168522e-16
-6.516182684e-16
2.705483336e-15
-7.457874353e-16
-6.40753546e-16
-5.6569317e-16
1.243449788e-14
1.681256044e-15
3.439534382e-15
3.642940632e-15
-1.54071299e-15
6.661338148e-16
1.776356839e-15
-5.68971348e-16
1.345468281e-16
0
-2.338398751e-15
2.220446049e-16
-1.776356839e-15
-4.107825191e-15
1.110223025e-16
0
5.811458866e-15
8.881784197e-16
-1.776356839e-15
4.232987238e-16
8.398868297e-16
0
1.127609347e-14
-1.224923682e-15
-7.007927615e-16
1.512016366e-15
-1.191664182e-15
7.223379911e-15
-6.543563727e-16
-2.669659967e-16
-8.805414458e-15
-9.497157559e-16
2.56739074e-16
-1.935892737e-15
4.111963829e-16
-1.407957605e-15
1.832160977e-15
8.769502021e-16
-3.10150004e-16
1.474671323e-15
-1.342339968e-16
8.187894807e-16
1.110223025e-16
2.359223927e-16
-1.087580772e-15
-1.693055542e-15
-4.857225733e-17
1.096345237e-15
-3.580435709e-15
-2.6970415e-16
-1.239873781e-16
-3.330669074e-15
1.754021745e-15
1.726266113e-15
-2.581233961e-15
-9.488028935e-16
-2.052086962e-15
-4.024530024e-15
2.142604152e-15
-6.066951618e-16
-1.776356839e-15
8.881786028e-16
-9.913593267e-16
0
-3.099870946e-15
-1.110223025e-16
-1.776356839e-15
-7.320541526e-15
1.068257917e-14
-3.552713679e-15
-3.039184589e-15
6.439293543e-15
0
1.22646083e-14
3.774758284e-15
0
9.325873407e-15
1.531552212e-15
4.916362347e-15
5.174040122e-16
2.347349495e-16
5.335999611e-15
6.748977622e-16
5.668889529e-16
4.694305251e-15
4.673128197e-16
8.287414575e-16
7.209519246e-15
1.154505859e-15
-1.016697342e-15
6.706563178e-15
-1.105659017e-15
-1.622150041e-15
1.226462618e-14
2.868912215e-16
2.081668171e-17
1.110223025e-16
1.064740355e-15
1.657635953e-15
-1.165655769e-15
4.10307671e-16
-8.081989359e-16
8.215650382e-15
-5.40927038e-16
3.148432017e-15
4.805319302e-15
9.020562075e-17
-2.220446049e-16
-1.221245327e-15
-5.703053056e-17
1.144917494e-15
2.886579864e-15
1.010048895e-15
-8.881784197e-16
0
-2.00533218e-15
-1.110223025e-15
0
-3.448622593e-15
0
-1.776356839e-15
-7.542585214e-15
1.991470091e-15
0
-1.117154345e-15
5.218048216e-15
-3.552713679e-15
1.103644338e-14
3.996802889e-15
0
-1.591876696e-16
1.450228826e-15
-1.038056336e-14
3.021466033e-17
1.210458104e-15
7.271995041e-15
1.565454093e-15
-1.156059335e-15
-2.775235763e-16
-3.412746297e-15
4.769143163e-17
-2.70254766e-16
1.296057861e-15
3.014840485e-17
7.168236093e-15
3.625660458e-16
6.245004514e-16
-1.026954105e-14
3.047069614e-15
2.081668171e-17
-1.221245327e-15
-3.469446952e-17
5.551115123e-16
-2.664535259e-15
6.245004514e-17
5.551115123e-17
-3.108624469e-15
-1.734723476e-16
-1.01307851e-15
0
-3.469446952e-17
-2.567390744e-16
-2.775557562e-15
4.30211422e-16
-2.428612866e-16
-3.330669074e-16
-1.020017404e-15
-1.554312234e-15
-1.776356839e-15
1.110223025e-16
-4.440892099e-16
-1.776356839e-15
8.881784197e-16
-4.996003611e-15
1.776356839e-15
1.998401444e-15
0
0
-8.659739592e-15
3.996802889e-15
0
-1.221245327e-15
-4.107825191e-15
-1.776356839e-15
1.221245327e-15
-6.938893904e-18
1.221245327e-15
6.938893904e-17
2.636779683e-16
1.221245327e-15
-1.110223025e-16
4.024558464e-16
-2.442490654e-15
-3.885780586e-16
-3.261280135e-16
-3.330669074e-16
3.60822483e-16
1.86656246e-15
-1.221245327e-15
7.147060721e-16
7.147060721e-16
3.330669074e-16
1.380839887e-15
1.387778781e-16
2.220446049e-16
2.498001805e-16
7.424616477e-16
-5.329070518e-15
6.245004514e-16
-4.857225733e-17
1.221245327e-15
1.703826375e-16
-1.70387819e-15
2.442490654e-15
-4.30211422e-16
1.838806885e-15
-3.219646771e-15
6.383782392e-16
-1.824929097e-15
-1.998401444e-15
1.450228826e-15
-9.992007222e-16
1.776356839e-15
8.881784197e-16
-2.997602166e-15
0
-5.884182031e-15
1.443289932e-15
-1.776356839e-15
-5.463616565e-15
-2.86305612e-15
-5.329070518e-15
1.221245327e-15
7.771561172e-15
1.776356839e-15
2.775557562e-15
1.36557432e-14
0
1.110223025e-16
-8.326672685e-17
4.329869796e-15
5.342948306e-16
-1.318389842e-16
-2.553512957e-15
-1.734723476e-16
1.249000903e-16
-2.220446049e-16
7.902745771e-16
-1.310796563e-16
4.440892099e-16
2.91433544e-16
1.346145417e-15
-1.33226763e-15
2.91433544e-16
5.967448757e-16
0
-9.228728892e-16
-1.054711873e-15
1.665334537e-15
2.775557562e-17
-4.440892099e-16
1.221245327e-15
5.342948306e-16
-7.702172233e-16
-2.220446049e-15
1.27989903e-16
-6.553458397e-16
3.330669074e-15
-1.942890293e-16
6.245004514e-16
3.108624469e-15
-1.859623566e-15
2.317590564e-15
2.331468352e-15
-8.326672685e-16
2.331468352e-15
0
-7.771561172e-16
0
0
-1.554312234e-15
1.443289932e-15
-1.776356839e-15
-4.536230442e-15
-5.788843687e-15
0
-2.220446049e-16
8.881784197e-16
0
4.329869796e-15
5.551115123e-15
1.776356839e-15
-9.547918012e-15
-4.926614672e-16
3.774758284e-15
-2.91433544e-16
-3.469446952e-17
4.337711542e-15
-3.323076442e-16
4.42570766e-16
4.536230213e-15
4.579669977e-16
-2.775557562e-17
-2.855211182e-15
1.78258946e-15
1.017792477e-15
3.457374868e-15
-1.611394459e-15
-1.033947433e-15
3.211801554e-15
2.85883431e-16
5.204170428e-16
-1.088018564e-14
-7.494005416e-16
-2.220446049e-16
-9.111670547e-15
2.629187052e-16
-2.087088621e-15
2.014085632e-15
-4.170928451e-16
2.505593914e-16
-3.251015453e-15
7.70341065e-17
-2.592921393e-15
7.200766169e-15
-1.261307618e-15
7.980250404e-16
7.845217233e-18
4.843337923e-16
-2.664535259e-15
0
-3.996802889e-15
-2.997602166e-15
-1.776356839e-15
-1.110223025e-15
0
-1.776356839e-15
2.228288303e-15
-3.116466723e-15
0
-8.881784197e-15
1.232347557e-14
0
-3.885780586e-15
1.110223025e-16
-1.776356839e-15
-1.110223025e-15
-5.898059818e-16
-6.661338148e-16
-8.812395258e-16
-6.52256027e-16
0
-2.498001805e-16
-4.926614672e-16
-2.664535259e-15
8.273528549e-16
-3.069358121e-16
6.994405055e-15
-1.651456749e-15
1.554312234e-15
-9.325873407e-15
2.040034808e-15
3.747002708e-16
-3.663735981e-15
-1.179611964e-15
1.144917494e-15
-2.997602166e-15
1.283695372e-15
-1.276756478e-15
7.549516567e-15
-1.179611964e-16
7.632783294e-16
-2.775557562e-15
7.193673802e-16
-1.746323678e-15
-7.105427358e-15
-6.314393453e-16
1.304512054e-15
2.664535259e-15
4.371503159e-16
-2.262079413e-15
3.885780586e-15
2.15105711e-16
6.661338148e-16
0
2.220446049e-15
-3.441691376e-15
-3.552713679e-15
-2.331468352e-15
-3.219646771e-15
0
1.188644441e-16
3.65589384e-15
-3.552713679e-15
2.553512957e-15
-2.220446049e-16
0
-7.993605777e-15
8.992806499e-15
-1.776356839e-15
-9.992007222e-16
9.992007222e-16
1.776356839e-15
2.983724379e-16
1.651456749e-15
-1.221245327e-15
1.262878691e-15
3.191891196e-16
-3.774758284e-15
5.936020666e-17
-8.2957743e-16
3.996802889e-15
9.714451465e-17
-5.75928194e-16
-1.221245327e-15
0
-1.144917494e-15
-6.994405055e-15
-1.845745778e-15
-1.318389842e-15
-1.476596623e-14
-8.326672685e-17
-7.771561172e-16
9.992007222e-16
-2.844946501e-16
2.983724379e-16
2.220446049e-16
-1.652267721e-15
2.283707066e-15
-4.440892099e-15
5.551115123e-17
-7.771561172e-16
6.32827124e-15
-1.339206523e-15
1.797173521e-15
9.992007222e-16
-5.551115123e-17
2.331468352e-15
0
1.33226763e-15
-4.662936703e-15
-1.776356839e-15
-1.33226763e-15
-3.885780586e-15
1.776356839e-15
-1.102378786e-15
-1.451134171e-15
-3.552713679e-15
3.108624469e-15
6.550315845e-15
-3.552713679e-15
-3.774758284e-15
-9.880984919e-15
0
-8.437694987e-15
5.551115123e-17
2.997602166e-15
-1.228184221e-15
6.869504965e-16
-2.220446049e-16
1.117161919e-15
-1.186550858e-15
6.994405055e-15
-2.185691505e-15
-5.34354905e-16
-1.887379142e-14
-1.873501354e-16
-1.429412144e-15
-7.438494265e-15
1.484923295e-15
6.800116026e-16
-1.36557432e-14
-4.440892099e-16
-4.440892099e-16
-1.776356839e-15
1.998401444e-15
-1.221245327e-15
-1.776356839e-15
0
2.331468352e-15
0
4.35980154e-15
-1.409540467e-16
-1.776356839e-15
2.220446049e-16
-3.330669074e-16
0
7.771561172e-15
-4.551914401e-15
-1.776356839e-15
8.326672685e-15
0
310.2345506
0
-1.776356839e-15
310.216894
-1.776356839e-15
-3.552713679e-15
310.2185571
0
1.776356839e-15
310.2185568
0
-1.776356839e-15
310.2168948
0
0
310.2345533
-1.776356839e-15
-2.160586744e-15
0
-4.614417521e-16
2.220446049e-15
-1.776356839e-15
5.936223132e-15
-2.459845277e-15
-1.776356839e-15
4.081792854e-15
4.577932423e-15
-3.552713679e-15
4.577932025e-15
-7.105427358e-15
-1.776356839e-15
8.805452756e-15
-4.808664094e-15
-1.776356839e-15
-8.467557699e-16
-2.220446049e-15
1.776356839e-15
-2.331468352e-15
-4.218847494e-15
0
-3.996802889e-15
3.108624469e-15
-1.776356839e-15
9.769962617e-15
-7.882583475e-15
-1.776356839e-15
5.107025913e-15
-6.661338148e-15
0
2.997602166e-15
-2.664535259e-15
0
-2.220446049e-16
-3.552713679e-15
310.2095857
0
0
310.192083
-1.776356839e-15
0
310.1937416
0
-1.776356839e-15
310.1937418
0
1.776356839e-15
310.1920837
-3.552713679e-15
0
310.2095868
-3.552713679e-15
1.409524403e-16
-1.776356839e-15
-1.939423575e-15
3.330669074e-16
-1.776356839e-15
-4.919680881e-15
2.331468352e-15
-1.776356839e-15
5.176430046e-15
-9.506297651e-15
1.776356839e-15
2.477193286e-15
-2.220446049e-16
0
2.220446049e-16
0
-3.552713679e-15
-8.54871729e-15
0
-1.776356839e-15
-2.109423747e-15
2.220446049e-16
-3.552713679e-15
7.21644966e-15
-5.551115123e-16
-1.776356839e-15
-5.235399797e-15
9.232202685e-15
0
-4.773959006e-15
-2.109423747e-15
0
-3.996802889e-15
-2.331468352e-15
0
-1.487698853e-14
1.776356839e-15
310.2126668
1.776356839e-15
1.776356839e-15
310.1951566
0
-1.776356839e-15
310.1968116
1.776356839e-15
-1.776356839e-15
310.1968123
0
0
310.1951574
0
0
310.2126673
0
-2.220446049e-16
0
1.007875955e-15
2.092073438e-15
-1.776356839e-15
2.348820463e-15
4.329869796e-15
1.776356839e-15
1.254552018e-14
-4.440891694e-15
-3.552713679e-15
-8.06992426e-15
5.211138583e-15
-1.776356839e-15
4.32986971e-15
-1.25594586e-15
0
-1.046425447e-14
-4.996003611e-15
-1.776356839e-15
-1.562987468e-15
-1.341634829e-14
0
-1.189673847e-14
7.327471963e-15
-3.552713679e-15
1.068611553e-15
-9.72835155e-15
-1.776356839e-15
-4.107825191e-15
1.133118448e-14
0
-4.961302992e-15
9.804663149e-15
0
-2.303310308e-15
1.776356839e-15
310.2139518
-1.776356839e-15
-1.776356839e-15
310.1964346
-1.776356839e-15
1.776356839e-15
310.19809
-1.776356839e-15
-1.776356839e-15
310.1980901
0
-1.776356839e-15
310.1964349
-1.776356839e-15
3.552713679e-15
310.2139518
0
-2.519749319e-16
-3.552713679e-15
-1.224715471e-14
-4.267381429e-16
0
2.237798718e-15
-2.477196248e-15
-1.776356839e-15
-4.073119064e-15
3.740052765e-15
-1.776356839e-15
-3.67772501e-16
4.107825191e-15
-3.552713679e-15
6.501781218e-15
-6.661338148e-16
0
-1.110223025e-16
-2.220446049e-16
0
0
-1.221245327e-15
0
3.663735981e-15
9.992007222e-16
-1.776356839e-15
-9.42999361e-15
-7.556418667e-15
-3.552713679e-15
-4.107825191e-15
4.551914401e-15
1.776356839e-15
-5.107025913e-15
-1.110223025e-15
-1.776356839e-15
8.437694987e-15
0
310.2137447
0
-1.776356839e-15
310.1962244
1.776356839e-15
-1.776356839e-15
310.1978812
-1.776356839e-15
0
310.1978812
-3.552713679e-15
-1.776356839e-15
310.1962243
-1.776356839e-15
-1.776356839e-15
310.2137441
-1.776356839e-15
8.185720055e-15
0
1.163306647e-14
-1.056446948e-14
1.776356839e-15
2.348814011e-15
-6.678690932e-15
1.776356839e-15
4.329856401e-15
4.586620505e-15
-1.776356839e-15
4.586606576e-15
-1.383617492e-14
0
-1.420393691e-14
-8.5834187e-15
0
6.023311816e-15
-8.10462808e-15
0
-8.881784197e-15
4.329869796e-15
0
-3.330669074e-16
-4.107825191e-15
0
-8.118488269e-16
4.697629413e-15
-1.776356839e-15
8.54871729e-15
5.551115123e-16
-1.776356839e-15
-4.662936703e-15
-7.21644966e-15
-1.776356839e-15
-1.054711873e-14
-1.776356839e-15
310.2240027
-1.776356839e-15
0
310.206431
0
-1.776356839e-15
310.2080863
1.776356839e-15
-1.776356839e-15
310.2080858
-1.776356839e-15
0
310.2064298
0
-1.776356839e-15
310.2240002
-1.776356839e-15
2.220446049e-16
0
1.179756848e-15
-9.658940314e-15
0
-1.161585971e-14
-1.33226763e-15
0
1.915442939e-15
-1.035313793e-14
1.776356839e-15
9.284391351e-15
3.108624469e-15
1.776356839e-15
-8.659739592e-15
-1.687538997e-14
-3.552713679e-15
-2.564615187e-14
-1.657918695e-16
-1.857041346e-15
-1.154020545e-16
6.420838722e-16
-8.06881334e-17
1.808834236e-16
-7.052080093e-16
0
-7.153926141e-16
2.775557562e-17
2.331468352e-15
-5.958005982e-16
-4.630171631e-16
0
1.491862189e-15
1.115787731e-15
-2.220446049e-16
-9.159339953e-16
-4.773959006e-15
-1.776356839e-15
-1.563074697e-15
4.773959006e-15
-1.776356839e-15
2.442491147e-15
-6.77236045e-15
0
9.890244527e-15
-2.591591158e-15
0
-4.812036311e-15
-4.821655313e-16
-1.776356839e-15
4.812031608e-15
-6.661338148e-16
-3.552713679e-15
-2.442490654e-15
4.857214144e-17
-8.58878332e-16
-2.419046642e-16
5.333349828e-16
5.811172202e-15
-6.94783825e-16
-4.30211422e-16
1.212834049e-16
-1.130560956e-15
-2.062518144e-16
-4.044349921e-15
-2.946654087e-16
-3.843903656e-16
1.139489216e-15
1.744284751e-15
4.060015693e-16
1.009474759e-15
-2.40022039e-16
1.633010743e-16
-4.652670397e-15
-2.012279232e-16
-2.835348023e-16
-4.996003611e-15
2.118761325e-16
-2.256909209e-16
4.209343511e-15
-1.276500522e-16
1.378815526e-16
5.653649462e-16
-1.886419757e-15
4.413393681e-16
-3.663735981e-15
-3.293574985e-16
4.996003611e-16
-2.220446049e-15
1.273524099e-15
-1.887379142e-15
1.776356839e-15
3.623285518e-16
-2.785061447e-15
-3.552713679e-15
-4.792969017e-15
-2.109423747e-15
0
-2.350479302e-15
-1.089919659e-14
1.776356839e-15
4.218847494e-15
-4.700956726e-15
-1.776356839e-15
-2.109423747e-15
-1.998401444e-15
-1.776356839e-15
-1.606351868e-14
-2.00754116e-16
4.836585787e-16
1.375284377e-16
-2.215649421e-16
-4.570924517e-15
-1.497791922e-16
9.783840405e-16
-7.143451038e-15
1.232247376e-15
-1.378443226e-15
4.572426564e-15
-2.141468472e-16
1.605533843e-16
2.461502263e-15
3.882245172e-16
-4.237519714e-16
2.350499787e-15
-8.645188947e-16
8.001862663e-16
-2.794588997e-15
5.339414864e-16
2.246304891e-16
4.814982798e-15
6.314393453e-16
2.209852364e-16
4.814987366e-15
-7.974935941e-16
1.739515523e-16
-4.570927732e-15
3.604693602e-16
2.626184521e-16
-2.79456917e-15
1.026249448e-15
-2.117002583e-17
-2.683566695e-15
7.625874533e-16
1.998401444e-15
-1.776356839e-15
-2.591535856e-15
4.543448326e-16
0
-5.034030237e-15
2.574027782e-15
-3.552713679e-15
-1.90142506e-17
-6.30925699e-15
-1.776356839e-15
-4.681950514e-15
1.998401444e-15
1.776356839e-15
2.600675055e-16
-5.551115123e-16
0
-2.120525977e-14
-3.33757389e-16
7.292582715e-15
-4.348790961e-16
3.050604435e-17
5.931383618e-16
1.82864029e-15
-5.768863502e-16
9.776033886e-15
8.510886493e-16
-1.33502757e-16
1.520552887e-16
-7.017863808e-16
2.56572652e-15
-1.384281832e-14
1.109995982e-15
3.457591005e-16
-3.717658493e-15
1.643261469e-15
-7.970257544e-16
-8.107805359e-15
-5.953070032e-16
6.736150791e-16
-1.162237316e-14
-3.325707319e-17
-1.594029246e-15
-2.477517889e-15
-1.378923678e-15
-1.542103766e-15
4.967048013e-15
-7.465260137e-16
1.782136221e-15
1.998401444e-15
8.168721262e-16
-4.713438491e-17
-3.16572426e-15
-1.32217818e-15
-2.835839114e-15
0
-3.52079803e-16
2.220446049e-15
0
1.300375599e-16
-3.330669074e-16
-3.552713679e-15
5.186092311e-15
-3.184687264e-15
-1.776356839e-15
-1.63233477e-14
9.103828802e-15
-1.776356839e-15
2.128437386e-15
6.521350512e-15
0
1.573657888e-14
-9.882984707e-16
-4.418839625e-15
-9.514620033e-16
1.625973159e-16
-4.196831361e-15
2.3509043e-16
-6.572787082e-16
-1.110223025e-16
-1.116909498e-15
-2.076877998e-16
-4.81199014e-15
9.506284648e-16
5.687625706e-16
2.109423747e-15
2.23912106e-15
-7.206864539e-16
-1.110223025e-16
-1.727054467e-15
1.804112415e-16
4.440892099e-15
6.591949209e-16
-5.365661868e-16
6.32827124e-15
5.06539255e-16
1.060592425e-15
-2.220446049e-15
5.292718143e-16
6.078665911e-17
-6.921415047e-15
-7.563394355e-16
9.360450172e-16
-2.591541803e-15
-9.298117831e-16
1.011666501e-15
4.218847494e-15
5.828670879e-16
2.472822304e-15
-1.776356839e-15
1.998401444e-15
4.440892099e-15
-3.552713679e-15
4.702468109e-15
-4.792974155e-15
0
-5.931426948e-16
-1.960370262e-15
-1.776356839e-15
-2.572528106e-15
-4.440892099e-15
-3.552713679e-15
2.128436533e-15
1.887379142e-15
0
-2.220446049e-15
1.295460729e-15
5.053076921e-15
2.141456483e-16
1.278398452e-16
7.165462904e-15
1.980814175e-15
-3.892837088e-16
6.921395437e-15
-5.34776209e-16
6.364606481e-16
-3.520826688e-16
1.420075598e-15
3.804535427e-16
4.34887442e-15
-2.270685242e-15
-1.036041677e-16
4.589963271e-15
-5.417096092e-16
-7.815362005e-16
-9.992007222e-16
-5.546314809e-16
3.330669074e-16
4.218847494e-15
-8.362064697e-17
-2.012279232e-16
1.776356839e-15
-1.523198101e-15
-1.134212721e-16
5.961221189e-16
4.926614672e-16
-1.021639144e-16
-2.220446049e-16
1.311306392e-16
-4.996003611e-16
1.776356839e-15
4.857225733e-16
4.612581843e-15
-1.776356839e-15
3.089600147e-15
4.218847494e-15
-3.552713679e-15
4.924540476e-15
-4.792985677e-15
1.776356839e-15
-5.275129558e-15
-6.56934296e-15
0
-7.051485067e-15
-7.610470497e-17
-1.776356839e-15
5.20515778e-15
-7.771561172e-16
-1.776356839e-15
0
-7.19085314e-16
1.373818392e-14
-2.395249363e-15
8.151462447e-16
4.551914401e-15
-6.776362973e-16
-1.082814723e-15
2.109423747e-15
-2.30608768e-15
2.253694706e-16
-1.823634424e-14
-2.859587961e-15
1.66463989e-15
-1.20191045e-14
3.742250527e-16
2.012279232e-16
-5.690719019e-15
2.692589986e-16
-4.926614672e-16
1.887379142e-15
-1.665334537e-16
-6.52256027e-16
-2.331468352e-15
1.033895192e-15
3.330669074e-16
-4.107825191e-15
1.164361092e-15
-1.944359777e-17
0
2.220446049e-16
4.163336342e-17
3.330669074e-16
2.983724379e-16
-3.60822483e-16
6.661338148e-16
-7.21644966e-16
2.220446049e-15
0
-1.110223025e-16
-3.441691376e-15
-1.776356839e-15
1.887379142e-15
2.442490654e-15
0
-8.676274922e-16
-4.572465328e-15
-1.776356839e-15
5.884182031e-15
1.110223025e-15
0
-4.773959006e-15
4.884981308e-15
0
-8.54871729e-15
-2.012279232e-16
2.220446049e-15
-5.481726184e-16
-5.134781489e-16