/*--------------------------------*- C++ -*----------------------------------*\
  =========                 |
  \\      /  F ield         | OpenFOAM: The Open Source CFD Toolbox
   \\    /   O peration     | Website:  https://openfoam.org
    \\  /    A nd           | Version:  7
     \\/     M anipulation  |
\*---------------------------------------------------------------------------*/
FoamFile
{
    version     2.0;
    format      ascii;
    class       volVectorField;
    location    "2";
    object      U;
}
// * * * * * * * * * * * * * * * * * * * * * * * * * * * * * * * * * * * * * //

dimensions      [0 1 -1 0 0 0 0];

internalField   nonuniform List<vector> 
10692
(
(2.061261802 0.0001853559251 -0.00586437295)
(2.067396151 0.004736070524 -0.00598812317)
(2.065753178 0.004200276118 -0.005872700488)
(2.065645999 0.0007652001466 -0.005866848839)
(2.066876943 0.001687732765 -0.005990049591)
(2.065763583 0.002980615278 -0.00586761205)
(2.065720217 -0.0006326108347 -0.005868204827)
(2.066934335 0.0004969539599 -0.005987190853)
(2.065773576 0.00177925238 -0.005866858489)
(2.065773589 -0.001779036882 -0.005866865523)
(2.066934359 -0.0004968018872 -0.00598720979)
(2.065720263 0.0006327031986 -0.005868230379)
(2.065763575 -0.002980592578 -0.005867646291)
(2.066876888 -0.001687849695 -0.005990088363)
(2.065645906 -0.000765419136 -0.005866888323)
(2.065753072 -0.004200539099 -0.005872738332)
(2.067396059 -0.004736297008 -0.005988158939)
(2.061261738 -0.0001854599262 -0.005864405154)
(2.068825555 8.340221559e-05 0.008162410884)
(2.075099838 0.004739142061 0.008159341689)
(2.073346181 0.004298586003 0.008186263624)
(2.073235811 0.0006527205667 0.008184702478)
(2.074586154 0.001678247346 0.008154706432)
(2.073358163 0.003081724213 0.00818388167)
(2.073315723 -0.000741396251 0.008183128567)
(2.074642486 0.0004954043266 0.008154016821)
(2.073367218 0.001883952389 0.008183207955)
(2.073367229 -0.001883751039 0.008183194964)
(2.074642505 -0.0004952583434 0.008153983959)
(2.073315762 0.0007414859138 0.008183081611)
(2.073358151 -0.003081703216 0.008183824962)
(2.074586095 -0.001678360926 0.008154648229)
(2.073235715 -0.0006529334878 0.008184649694)
(2.073346072 -0.004298843019 0.008186219107)
(2.075099744 -0.004739362922 0.008159307448)
(2.068825488 -8.350409609e-05 0.008162384678)
(2.066307974 0.0001906877356 0.004623178418)
(2.072471087 0.004750012753 0.004719043677)
(2.070818542 0.004195871804 0.004624451424)
(2.070711101 0.0007749848091 0.004617953889)
(2.071946631 0.001689860435 0.004716661368)
(2.070828204 0.002975074296 0.004619907938)
(2.070783851 -0.0006245827515 0.00461993424)
(2.072004751 0.0004977917891 0.004714511224)
(2.070838306 0.001772432774 0.004619281256)
(2.070838311 -0.001772249891 0.004619264698)
(2.072004757 -0.0004976594148 0.004714468103)
(2.070783873 0.0006246660876 0.004619870994)
(2.070828177 -0.002975048949 0.004619835035)
(2.071946561 -0.0016899629 0.0047165927)
(2.070710997 -0.0007751840965 0.004617896964)
(2.070818428 -0.004196114697 0.004624413066)
(2.072470985 -0.00475022294 0.004719024111)
(2.0663079 -0.0001907876177 0.004623173134)
(2.06669787 0.0002038471754 0.002027159667)
(2.072855544 0.004750019767 0.001901061911)
(2.071210889 0.004186530166 0.002035451237)
(2.071104294 0.0007831814702 0.002039599957)
(2.072331584 0.00168964958 0.001895609389)
(2.07122102 0.00296521076 0.002036002134)
(2.071176433 -0.0006161456662 0.00203547036)
(2.07238985 0.0004974731136 0.001897170169)
(2.071231074 0.001763270263 0.002036307902)
(2.071231072 -0.001763114501 0.002036287678)
(2.072389838 -0.0004973583158 0.00189711509)
(2.071176432 0.0006162221462 0.002035397849)
(2.071220975 -0.002965178913 0.0020359172)
(2.072331503 -0.001689733997 0.001895530185)
(2.071104184 -0.0007833557061 0.002039540916)
(2.071210769 -0.004186746561 0.002035420024)
(2.072855437 -0.004750208463 0.001901054844)
(2.066697787 -0.0002039377088 0.002027173296)
(2.06785236 7.241541954e-05 0.002655191243)
(2.074135571 0.00473326806 0.002635758193)
(2.072365766 0.004298013973 0.002659523755)
(2.072254947 0.0006453418061 0.002659126879)
(2.073620521 0.001675623054 0.002632418698)
(2.072377853 0.003084444778 0.002658056559)
(2.072335343 -0.0007462713414 0.002657870681)
(2.073677665 0.0004952743961 0.002632383094)
(2.072387242 0.001887880032 0.002657974394)
(2.072387234 -0.001887759572 0.002657954575)
(2.073677639 -0.0004951795191 0.002632326904)
(2.072335325 0.0007463418701 0.002657797585)
(2.072377799 -0.003084408159 0.002657972818)
(2.073620438 -0.001675683351 0.002632343395)
(2.07225484 -0.0006454803477 0.002659081353)
(2.072365648 -0.00429819611 0.002659512636)
(2.074135464 -0.004733428025 0.002635780564)
(2.067852273 -7.249107352e-05 0.002655239425)
(2.066848564 0.0001984713962 0.003858954296)
(2.073016567 0.004749061065 0.003966592782)
(2.071360805 0.004192585816 0.003861668346)
(2.071253584 0.0007753216652 0.003855427045)
(2.072493382 0.001688688285 0.003967374072)
(2.071371169 0.002971815942 0.003857800107)
(2.07132671 -0.0006232563716 0.003857892928)
(2.072551769 0.000497493052 0.003964875632)
(2.07138126 0.001770096622 0.003856903323)
(2.071381246 -0.001770004364 0.003856885418)
(2.072551731 -0.0004974166698 0.003964830669)
(2.071326676 0.0006233232076 0.003857836974)
(2.071371107 -0.002971766321 0.003857737299)
(2.0724933 -0.001688714893 0.003967326901)
(2.071253479 -0.0007754138386 0.003855412798)
(2.071360693 -0.004192718174 0.003861695965)
(2.073016459 -0.00474917587 0.003966661428)
(2.066848471 -0.00019852246 0.003859059177)
(2.066774589 0.0002008162502 0.0001905550113)
(2.072939989 0.004748270913 7.244684565e-05)
(2.071286401 0.004189573089 0.0001942360468)
(2.071179385 0.0007778346368 0.0001987989851)
(2.072416666 0.001688640663 6.857852843e-05)
(2.071296859 0.002968891548 0.0001956653968)
(2.071252414 -0.0006205628413 0.0001954478014)
(2.072475267 0.0004974093886 7.021738725e-05)
(2.071307098 0.001767310091 0.0001961647437)
(2.071307083 -0.001767240034 0.0001961514207)
(2.072475224 -0.0004973376175 7.01932399e-05)
(2.071252372 0.000620633785 0.0001954281182)
(2.071296799 -0.002968825126 0.0001956414663)
(2.072416592 -0.001688630953 6.857484413e-05)
(2.071179293 -0.0007778773489 0.0001988295776)
(2.071286298 -0.00418965111 0.0001943151036)
(2.072939884 -0.004748332084 7.257568044e-05)
(2.066774495 -0.0002008340635 0.0001907281867)
(2.068049092 7.669616808e-05 0.001191423724)
(2.074330345 0.004732246245 0.001184011779)
(2.072563251 0.004294727278 0.001193798153)
(2.072452648 0.0006477367544 0.00119361845)
(2.073815607 0.001675338166 0.001182953302)
(2.072575664 0.003081036147 0.00119322827)
(2.072533299 -0.0007436118425 0.001193162619)
(2.073873016 0.0004950559063 0.001182805833)
(2.072585217 0.00188482682 0.001193125909)
(2.072585205 -0.001884759865 0.001193130912)
(2.073872978 -0.0004949716345 0.001182822318)
(2.072533261 0.0007436963533 0.00119320779)
(2.072575616 -0.003080950571 0.001193280588)
(2.073815545 -0.001675290223 0.001183030415)
(2.07245257 -0.00064772675 0.001193732451)
(2.072563159 -0.004294741355 0.001193961172)
(2.074330244 -0.004732246225 0.001184217768)
(2.068048995 -7.668177305e-05 0.001191669283)
(2.066902605 0.0001995925692 0.002446070156)
(2.073070415 0.004748182996 0.002554665499)
(2.071414917 0.004191848485 0.002446859738)
(2.071307691 0.0007752417155 0.002441453169)
(2.072547453 0.001688362997 0.002556406447)
(2.071425406 0.002971143065 0.00244392658)
(2.071381075 -0.0006230448979 0.002444077037)
(2.072605987 0.000497366178 0.002554285924)
(2.071435632 0.001769674328 0.002443225664)
(2.071435627 -0.00176956906 0.002443242802)
(2.07260597 -0.0004972389293 0.002554327698)
(2.071381053 0.0006231685703 0.002444156264)
(2.071425378 -0.002971027079 0.002444016881)
(2.07254741 -0.001688276459 0.002556517171)
(2.071307625 -0.0007751864445 0.002441594335)
(2.071414827 -0.004191823577 0.0024470357)
(2.073070308 -0.004748151064 0.002554876001)
(2.066902491 -0.0001995600117 0.00244630519)
(2.066875371 0.0001995205343 -0.001086630176)
(2.073042704 0.004747958027 -0.00119859404)
(2.071387459 0.004191698795 -0.001084629115)
(2.071280232 0.0007752431754 -0.00107971419)
(2.072519692 0.001688292658 -0.00120101849)
(2.071397892 0.002971002385 -0.001082371009)
(2.071353564 -0.0006229864696 -0.001082551966)
(2.072578237 0.0004973484734 -0.001199208004)
(2.071408152 0.001769603039 -0.001081792696)
(2.071408157 -0.001769463342 -0.001081783913)
(2.072578243 -0.0004971877201 -0.00119918412)
(2.071353564 0.0006231337178 -0.001082506694)
(2.071397883 -0.002970873148 -0.001082329145)
(2.072519661 -0.001688187276 -0.001200971653)
(2.071280169 -0.0007751678185 -0.001079652215)
(2.071387365 -0.004191647375 -0.001084543021)
(2.073042577 -0.00474790485 -0.001198474019)
(2.066875235 -0.0001994876477 -0.001086475586)
(2.068062826 7.878332495e-05 0.0001092076943)
(2.074344111 0.004732086559 0.000108330908)
(2.072577069 0.004292774814 0.0001097195197)
(2.072466483 0.0006493772524 0.0001097496832)
(2.073829401 0.001675287992 0.000108480512)
(2.072589409 0.003079017873 0.0001097941119)
(2.072547058 -0.0007419132247 0.0001098047877)
(2.073886794 0.0004949662201 0.0001084711733)
(2.072599003 0.001883008723 0.0001097846219)
(2.072599013 -0.001882860901 0.0001097818381)
(2.073886814 -0.000494792772 0.000108466214)
(2.072547066 0.0007420628975 0.0001098049091)
(2.072589401 -0.003078896676 0.0001097772908)
(2.073829361 -0.001675186144 0.0001084560677)
(2.072466403 -0.0006492968693 0.0001097281666)
(2.072576952 -0.004292712672 0.0001097181673)
(2.074343958 -0.004732010559 0.0001083575742)
(2.068062659 -7.874076141e-05 0.0001092844519)
(2.066882973 0.0001996757754 0.001366692454)
(2.073050536 0.004748073293 0.001476520613)
(2.07139526 0.004191688299 0.001365660149)
(2.071288015 0.0007752971242 0.001360809235)
(2.072527533 0.001688280111 0.001479151111)
(2.071405639 0.002970920781 0.001363537201)
(2.071361314 -0.0006229806401 0.00136376745)
(2.07258599 0.0004973134887 0.001477352418)
(2.071415856 0.001769551412 0.001362980711)
(2.071415868 -0.001769412548 0.001362971238)
(2.072586011 -0.0004971438132 0.001477326783)
(2.071361312 0.0006231185668 0.001363732937)
(2.071405616 -0.002970820712 0.001363479148)
(2.07252747 -0.001688195289 0.001479077552)
(2.071287906 -0.000775226482 0.001360732559)
(2.071395108 -0.004191625281 0.001365596106)
(2.073050346 -0.004747983164 0.001476485098)
(2.066882768 -0.0001996341785 0.001366701794)
(2.066885687 0.0001993368898 -0.002071695665)
(2.07305356 0.004748248664 -0.002183733982)
(2.071398059 0.004192128909 -0.002071297282)
(2.071290769 0.0007750461052 -0.002065764219)
(2.072530531 0.001688343611 -0.00218527707)
(2.071408395 0.002971345193 -0.002068149792)
(2.071364079 -0.0006233177798 -0.002068224732)
(2.072588913 0.0004973148126 -0.002183085741)
(2.071418562 0.0017699128 -0.002067391694)
(2.071418571 -0.001769793888 -0.002067404727)
(2.072588923 -0.000497161716 -0.002183120178)
(2.071364057 0.0006234346508 -0.002068276482)
(2.071408348 -0.00297127289 -0.002068226384)
(2.07253044 -0.001688283655 -0.002185371121)
(2.071290628 -0.0007749931582 -0.00206586294)
(2.071397873 -0.004192072677 -0.002071386737)
(2.073053335 -0.004748151436 -0.002183797159)
(2.06688545 -0.0001993016161 -0.002071720276)
(2.068082692 7.62469751e-05 -0.0007814096951)
(2.074363507 0.004732597797 -0.0007788531748)
(2.072597429 0.004295880265 -0.0007832273998)
(2.07248681 0.0006470352383 -0.00078309044)
(2.073848967 0.001675393106 -0.0007779300101)
(2.07260982 0.003081968863 -0.0007826086838)
(2.07256755 -0.0007445384481 -0.0007824408725)
(2.07390618 0.0004949955834 -0.0007777017869)
(2.072619289 0.001885747242 -0.0007824132564)
(2.072619294 -0.001885646659 -0.0007824245889)
(2.073906176 -0.0004948576176 -0.0007777379068)
(2.072567505 0.000744635361 -0.0007824911838)
(2.072609747 -0.00308192067 -0.0007826865056)
(2.073848849 -0.001675354608 -0.0007780217026)
(2.072486642 -0.0006469984935 -0.0007831893816)
(2.072597218 -0.004295830415 -0.0007833182074)
(2.074363259 -0.004732496277 -0.0007789238556)
(2.068082432 -7.621951195e-05 -0.000781453748)
(2.066801132 0.000200221988 0.0004804098729)
(2.072967394 0.004748262524 0.0005928325481)
(2.071312891 0.00419018296 0.0004781103749)
(2.071205749 0.0007777390588 0.0004734579735)
(2.072444029 0.001688830764 0.0005968842297)
(2.07132317 0.002969415485 0.0004768247773)
(2.071278789 -0.0006208929844 0.0004771653517)
(2.072502476 0.0004973757708 0.0005953671233)
(2.071333386 0.001767741105 0.0004764405433)
(2.071333385 -0.001767650737 0.0004764286395)
(2.072502463 -0.0004972452325 0.0005953344655)
(2.071278721 0.0006209775763 0.000477120869)
(2.071323077 -0.002969387023 0.0004767557124)
(2.072443891 -0.001688809654 0.0005968023107)
(2.071205565 -0.000777717117 0.0004733700648)
(2.071312668 -0.004190139565 0.0004780285391)
(2.072967136 -0.004748162962 0.0005927575385)
(2.066800869 -0.0002002031177 0.0004803623618)
(2.06728753 0.000199869941 -0.003815568983)
(2.073455345 0.004750040866 -0.003931481137)
(2.071801788 0.004194175435 -0.003819613317)
(2.071694755 0.0007757272011 -0.003813716651)
(2.072932948 0.001689331502 -0.003932357584)
(2.071812488 0.002972681575 -0.003815882067)
(2.07176816 -0.0006235340991 -0.003815741691)
(2.072991319 0.000497509682 -0.003929952158)
(2.071822629 0.001770627305 -0.00381493369)
(2.071822625 -0.001770541868 -0.003814946403)
(2.072991296 -0.0004973775292 -0.00392997562)
(2.071768076 0.000623613528 -0.003815780582)
(2.07181238 -0.0029726643 -0.003815936851)
(2.072932798 -0.001689320431 -0.003932423571)
(2.071694569 -0.000775712294 -0.003813782479)
(2.071801568 -0.004194142375 -0.00381968045)
(2.073455105 -0.004749936617 -0.003931530881)
(2.067287275 -0.0001998446424 -0.003815608395)
(2.068237903 7.274078956e-05 -0.001514923655)
(2.074516911 0.004733862189 -0.001514114658)
(2.072753855 0.004297212214 -0.001516226767)
(2.072643389 0.0006486975967 -0.001515900143)
(2.074002053 0.001676661514 -0.001511510889)
(2.072766421 0.003082994829 -0.001515139879)
(2.07272433 -0.0007438429973 -0.001514844456)
(2.074059232 0.0004952115182 -0.001511153637)
(2.072775891 0.001885884185 -0.001514776055)
(2.072775887 -0.001885796133 -0.001514784955)
(2.074059201 -0.0004950760413 -0.001511171643)
(2.072724237 0.000743920423 -0.001514868427)
(2.072766302 -0.003082980693 -0.001515178807)
(2.074001898 -0.001676652731 -0.001511555512)
(2.072643199 -0.000648690151 -0.001515945229)
(2.072753646 -0.004297172626 -0.001516259522)
(2.07451667 -0.004733756041 -0.001514137742)
(2.068237676 -7.273005507e-05 -0.00151493117)
(2.063419626 0.000196798644 -0.006314088997)
(2.069568645 0.004739288591 -0.006211598718)
(2.067916732 0.004183147544 -0.006332701214)
(2.067810306 0.0007760979747 -0.006338985167)
(2.069048692 0.001685785251 -0.006205729593)
(2.067927826 0.002963846674 -0.006336312691)
(2.067883716 -0.0006199841377 -0.006336121361)
(2.069107224 0.0004963706745 -0.00620813666)
(2.067938182 0.001764558735 -0.006337159608)
(2.067938177 -0.001764467229 -0.006337166379)
(2.069107192 -0.0004962225085 -0.006208153908)
(2.067883614 0.0006200682453 -0.006336142065)
(2.067927702 -0.002963833553 -0.006336346547)
(2.069048528 -0.001685776091 -0.006205768038)
(2.067810114 -0.0007760775729 -0.006339025688)
(2.06791651 -0.004183104236 -0.006332724759)
(2.069568419 -0.004739171413 -0.006211629117)
(2.063419396 -0.0001967671462 -0.006314095193)
(2.507190983 1.234622822e-05 -0.01089773209)
(2.51457056 0.007303121887 -0.01107381829)
(2.516158885 0.006266608798 -0.01091792372)
(2.515889773 0.001948294112 -0.01090955671)
(2.513058939 0.00302320985 -0.01107807645)
(2.515829627 0.004610643164 -0.01090840621)
(2.515668664 -0.0005022780387 -0.01090870683)
(2.512980282 0.0009096324824 -0.01107435779)
(2.515718803 0.002519787923 -0.01090812529)
(2.515718755 -0.002519627657 -0.01090813341)
(2.512980105 -0.0009095025164 -0.01107437611)
(2.515668453 0.0005023288801 -0.01090873184)
(2.515829215 -0.004610699592 -0.01090843933)
(2.513058387 -0.003023408328 -0.01107811374)
(2.515889156 -0.0019485824 -0.01090959408)
(2.516158306 -0.006266913039 -0.01091795901)
(2.514570093 -0.007303349074 -0.01107385116)
(2.507190646 -1.245341373e-05 -0.01089776107)
(2.51824631 -0.0001061516866 0.01426031133)
(2.525178374 0.007312607316 0.01426792432)
(2.527273835 0.006375980408 0.01430299103)
(2.527000532 0.001813101914 0.01430031381)
(2.523676442 0.003008195686 0.01425762116)
(2.526947616 0.004725570846 0.0142978022)
(2.526788975 -0.0006324231899 0.0142956107)
(2.52359421 0.0009045814104 0.01425683673)
(2.526835072 0.002641114917 0.01429662206)
(2.526835023 -0.002640969111 0.01429660844)
(2.523594031 -0.000904455468 0.01425680668)
(2.526788769 0.0006324725136 0.01429556467)
(2.526947212 -0.004725627092 0.01429774972)
(2.523675902 -0.003008389092 0.0142575707)
(2.526999928 -0.001813382578 0.01430027208)
(2.527273266 -0.006376277546 0.01430296056)
(2.525177914 -0.007312827863 0.0142679058)
(2.518245975 0.0001060471901 0.01426030338)
(2.517552194 1.867175473e-05 0.006299953855)
(2.524993111 0.007322494337 0.00640320676)
(2.526554954 0.006248495826 0.006296575929)
(2.526285508 0.00197423507 0.006288203621)
(2.523468589 0.003026862214 0.006392158043)
(2.526222799 0.004592158411 0.006287484447)
(2.526059085 -0.0004787557432 0.006285521285)
(2.523391511 0.0009123499163 0.00639049265)
(2.526111768 0.002498979383 0.006287526536)
(2.526111717 -0.002498848799 0.006287511133)
(2.523391335 -0.0009122369679 0.006390453806)
(2.526058862 0.0004788001992 0.006285461734)
(2.526222398 -0.004592203925 0.00628742182)
(2.523468062 -0.003027038053 0.006392106408)
(2.526284923 -0.00197449614 0.006288172483)
(2.526554403 -0.006248774224 0.006296569002)
(2.524992662 -0.007322699942 0.00640322268)
(2.51755187 -1.877132642e-05 0.006299986078)
(2.518650004 4.144139728e-05 0.004467553156)
(2.526085621 0.00732304942 0.004307505405)
(2.527656665 0.006238827824 0.004489141099)
(2.527388762 0.001981470081 0.00449297897)
(2.524563041 0.003025448177 0.004302346958)
(2.527325267 0.004580518489 0.004489595273)
(2.527160741 -0.0004708723154 0.00449017336)
(2.524486 0.0009117449021 0.004302988978)
(2.527213759 0.002489232822 0.004488877299)
(2.527213704 -0.00248912678 0.004488858275)
(2.524485816 -0.0009116467996 0.004302939001)
(2.527160512 0.0004709154873 0.00449011039)
(2.527324881 -0.004580549174 0.004489529549)
(2.524562544 -0.003025595414 0.004302297434)
(2.527388215 -0.001981696066 0.004492962265)
(2.52765615 -0.006239072898 0.004489159404)
(2.526085199 -0.007323229805 0.004307553118)
(2.518649693 -4.153063004e-05 0.004467622451)
(2.515470488 -0.0001286506181 0.004662320084)
(2.522413241 0.007298645046 0.004634249598)
(2.524482299 0.006366604956 0.004670768942)
(2.524207229 0.001806138221 0.004669260697)
(2.5209026 0.00300383271 0.004628458062)
(2.524153885 0.004724265721 0.004667428796)
(2.523994349 -0.0006340829957 0.004667127637)
(2.520821464 0.0009049249025 0.004628068437)
(2.524041382 0.00264162075 0.004667100084)
(2.524041324 -0.002641547822 0.004667081048)
(2.520821276 -0.0009048422737 0.004628020764)
(2.523994136 0.0006341280015 0.004667067965)
(2.524153532 -0.004724279952 0.004667371359)
(2.520902155 -0.003003942964 0.004628426926)
(2.52420674 -0.001806317773 0.004669271368)
(2.524481835 -0.006366808423 0.004670827008)
(2.522412857 -0.007298791876 0.004634344529)
(2.515470202 0.0001285788067 0.004662443477)
(2.518436244 3.700504867e-05 0.006211168357)
(2.525887013 0.007319926423 0.006339409894)
(2.527439608 0.006241446647 0.006214124849)
(2.52717013 0.001974597378 0.006206359202)
(2.524363992 0.003023881818 0.006337107083)
(2.52710759 0.004584446256 0.006206747309)
(2.526943224 -0.0004761098702 0.00620511235)
(2.524286751 0.000911600813 0.006334277672)
(2.526996009 0.002493737121 0.006206056875)
(2.526995952 -0.0024936895 0.006206043257)
(2.524286578 -0.0009115323089 0.006334245924)
(2.526943016 0.0004761577811 0.006205075034)
(2.527107278 -0.004584431088 0.006206721614)
(2.524363609 -0.003023943328 0.006337116254)
(2.52716971 -0.001974716948 0.006206417578)
(2.527439207 -0.006241590189 0.006214238191)
(2.525886671 -0.00732002428 0.006339569827)
(2.518435982 -3.704902102e-05 0.006211369121)
(2.518127665 3.890793535e-05 0.001009744891)
(2.525573764 0.007318312936 0.0008593889158)
(2.527130192 0.006238210185 0.00102117027)
(2.526860854 0.00197687298 0.001025888948)
(2.524050034 0.003023635912 0.0008562271444)
(2.526798029 0.00458137127 0.001023349003)
(2.526633717 -0.0004733491149 0.001024809152)
(2.523973032 0.0009115637939 0.0008572249259)
(2.526686623 0.002490922176 0.001023254696)
(2.52668657 -0.002490888852 0.001023247973)
(2.523972876 -0.000911496279 0.000857219847)
(2.526633531 0.0004734124312 0.001024815961)
(2.526797766 -0.004581323288 0.001023375153)
(2.524049719 -0.003023645261 0.0008562899747)
(2.526860508 -0.001976930414 0.001026007781)
(2.527129855 -0.006238291751 0.001021351342)
(2.525573468 -0.007318349818 0.0008596276259)
(2.518127432 -3.891567531e-05 0.001010039125)
(2.515442351 -0.0001237101723 0.00224646073)
(2.522381728 0.00729666787 0.002234911533)
(2.524453913 0.006364345347 0.002251819954)
(2.524178629 0.001806199771 0.002251288855)
(2.520870866 0.003002870078 0.002233490435)
(2.52412513 0.004721710823 0.002250618749)
(2.523965672 -0.0006332778367 0.002250603552)
(2.52078977 0.0009043879576 0.002233013129)
(2.524012693 0.002639925313 0.002250331226)
(2.524012655 -0.002639885389 0.002250348171)
(2.520789636 -0.000904299542 0.002233062219)
(2.523965524 0.0006333669374 0.00225069442)
(2.524124927 -0.004721626592 0.002250742371)
(2.520870624 -0.003002825702 0.002233658262)
(2.524178358 -0.001806187921 0.002251510585)
(2.524453639 -0.006364354083 0.002252101675)
(2.52238147 -0.007296635913 0.002235241995)
(2.515442132 0.0001237390711 0.002246835437)
(2.518127162 3.784603822e-05 0.003730475751)
(2.525577578 0.007318217245 0.003863774996)
(2.527129887 0.00624120111 0.003728759834)
(2.526859929 0.001973162523 0.00372237184)
(2.524054211 0.003023172135 0.003863509086)
(2.526797402 0.004584302285 0.003723409725)
(2.526633221 -0.0004768807866 0.003721945312)
(2.523976947 0.000911292238 0.003861446074)
(2.526685949 0.002494107042 0.003723120771)
(2.526685919 -0.002494001549 0.003723151333)
(2.523976864 -0.0009111427864 0.003861526912)
(2.526633107 0.0004770285545 0.003722077482)
(2.52679725 -0.004584166391 0.003723576718)
(2.524054015 -0.003023075838 0.003863713641)
(2.52685969 -0.001973103159 0.003722615362)
(2.527129621 -0.006241173588 0.003729044403)
(2.525577303 -0.007318162186 0.003864090661)
(2.518126895 -3.781099669e-05 0.003730818488)
(2.518002797 3.717149705e-05 -0.001242226824)
(2.525452624 0.007317712891 -0.001381618226)
(2.52700513 0.006241420991 -0.001234652571)
(2.526735065 0.001972730475 -0.001229116065)
(2.523929102 0.003023038959 -0.001382069497)
(2.526672473 0.004584520133 -0.001230607411)
(2.526508304 -0.0004771759738 -0.001229119764)
(2.523851865 0.0009112912974 -0.001380584108)
(2.526561058 0.002494429103 -0.001230484652)
(2.526561051 -0.002494270567 -0.001230468109)
(2.52385182 -0.000911093138 -0.001380537079)
(2.526508229 0.0004773593505 -0.001229046728)
(2.526672357 -0.0045843576 -0.001230526513)
(2.523928932 -0.003022919784 -0.001381977077)
(2.526734833 -0.001972650548 -0.00122900333)
(2.527004852 -0.006241377628 -0.001234508252)
(2.525452304 -0.007317648136 -0.001381437159)
(2.518002482 -3.714264918e-05 -0.0012419991)
(2.515234091 -0.0001204322124 0.0002552688505)
(2.522172456 0.00729655205 0.0002537753992)
(2.52424608 0.006361553321 0.0002563444016)
(2.523970761 0.001808624382 0.0002564532695)
(2.520661595 0.003002779392 0.0002543379516)
(2.523917066 0.004718673441 0.0002566162538)
(2.52375775 -0.0006307476338 0.0002566914931)
(2.520580302 0.0009042304395 0.0002543584619)
(2.523804686 0.002637223253 0.0002566343862)
(2.523804688 -0.002637050678 0.0002566357687)
(2.520580285 -0.0009040209255 0.0002543591816)
(2.523757692 0.0006309310968 0.0002566915779)
(2.52391696 -0.004718521433 0.0002565987575)
(2.520661421 -0.003002665909 0.0002543111184)
(2.523970517 -0.00180854199 0.000256432986)
(2.524245777 -0.006361498535 0.0002563507887)
(2.522172103 -0.007296462679 0.0002538258346)
(2.515233724 0.0001204626359 0.0002553867874)
(2.517941879 3.750665904e-05 0.001835847737)
(2.525392104 0.007318177971 0.001971199895)
(2.526944762 0.006241655683 0.00183007582)
(2.52667469 0.001972788368 0.001824722374)
(2.523868713 0.003023102456 0.0019724721)
(2.526612076 0.004584592151 0.001826451842)
(2.526447953 -0.0004772881626 0.001825171622)
(2.523791319 0.0009112146886 0.001971069605)
(2.526500627 0.002494501908 0.001826452811)
(2.526500631 -0.002494339891 0.001826442981)
(2.523791306 -0.0009110173617 0.00197103886)
(2.526447882 0.0004774495386 0.001825120881)
(2.526611953 -0.004584469052 0.00182637186)
(2.523868514 -0.003023013276 0.001972373046)
(2.526674412 -0.001972719299 0.001824621184)
(2.526944419 -0.006241599676 0.001829996239)
(2.525391705 -0.007318068547 0.001971164358)
(2.517941462 -3.747944253e-05 0.001835879772)
(2.517926457 3.698096461e-05 -0.002938078597)
(2.525377296 0.007318619403 -0.003078797742)
(2.526929547 0.006242282547 -0.00293391638)
(2.526659421 0.001972569803 -0.002927195484)
(2.523853859 0.003023290129 -0.003077582744)
(2.526596808 0.004585242887 -0.002927955192)
(2.526432722 -0.0004777211162 -0.002926184757)
(2.523776339 0.000911192178 -0.003075385201)
(2.526485315 0.002494999841 -0.002927517037)
(2.526485314 -0.002494867818 -0.002927532466)
(2.523776312 -0.0009110252847 -0.003075431941)
(2.526432621 0.0004778472274 -0.002926259133)
(2.526596652 -0.004585158882 -0.002928061913)
(2.523853625 -0.003023234281 -0.003077710104)
(2.526659106 -0.001972522112 -0.002927326916)
(2.526929164 -0.006242230439 -0.00293402936)
(2.525376856 -0.007318495105 -0.003078868334)
(2.517926002 -3.696122194e-05 -0.002938091163)
(2.515319515 -0.0001254951616 -0.001439851553)
(2.52225995 0.007297954013 -0.001437256048)
(2.524332151 0.006368396848 -0.001444693196)
(2.524056697 0.001803607781 -0.001444325349)
(2.520749741 0.003003195127 -0.00143599543)
(2.524003346 0.004725267623 -0.001443539169)
(2.523844059 -0.0006365518434 -0.00144326889)
(2.520668363 0.0009041601479 -0.001435423871)
(2.523890883 0.002643279097 -0.001443048087)
(2.523890877 -0.002643179715 -0.001443064573)
(2.520668317 -0.0009040247418 -0.00143546999)
(2.523843926 0.0006366431494 -0.001443343604)
(2.524003158 -0.004725220193 -0.001443644815)
(2.520749476 -0.003003170534 -0.001436119235)
(2.52405635 -0.001803581058 -0.001444454586)
(2.524331739 -0.006368349246 -0.001444808432)
(2.522259481 -0.007297820085 -0.001437341931)
(2.515319035 0.0001255043707 -0.001439893308)
(2.517840031 3.736201223e-05 0.0005290938036)
(2.525285204 0.007318321408 0.0006682184466)
(2.526843188 0.00623911994 0.0005205309427)
(2.526573569 0.001977148513 0.0005157349588)
(2.523761344 0.003024153474 0.0006723216434)
(2.526510669 0.00458222047 0.0005185951254)
(2.526346784 -0.0004735538126 0.0005173677961)
(2.523683836 0.0009114844958 0.0006714858508)
(2.526399247 0.00249147983 0.0005189319498)
(2.526399235 -0.00249140464 0.0005189164557)
(2.523683777 -0.0009113728003 0.0006714448938)
(2.526346618 0.0004736153571 0.0005173028543)
(2.526510456 -0.004582203754 0.0005185036662)
(2.523761056 -0.00302415611 0.0006722165038)
(2.526573211 -0.001977142079 0.0005156280536)
(2.526842771 -0.006239083669 0.0005204330342)
(2.525284737 -0.007318186287 0.0006681386527)
(2.517839557 -3.735957082e-05 0.0005290438688)
(2.519256004 4.025578017e-05 -0.006184750287)
(2.526707038 0.007321933334 -0.006337654306)
(2.528263431 0.006246453799 -0.006189738326)
(2.527994291 0.001973578653 -0.006182438723)
(2.525186834 0.003024943746 -0.006336084188)
(2.527932389 0.004587711023 -0.006182767714)
(2.527768524 -0.0004784661379 -0.006180442563)
(2.525109616 0.0009114716874 -0.006333718856)
(2.527821061 0.002496492449 -0.006182103355)
(2.527821045 -0.002496435051 -0.006182118634)
(2.525109549 -0.0009113741002 -0.006333751443)
(2.527768337 0.0004785098297 -0.006180496663)
(2.527932161 -0.004587714038 -0.00618284118)
(2.525186541 -0.003024960407 -0.006336165812)
(2.52799394 -0.001973583034 -0.006182519288)
(2.528263033 -0.006246423657 -0.006189809962)
(2.526706604 -0.007321796644 -0.00633771332)
(2.51925556 -4.025963605e-05 -0.006184778549)
(2.515809576 -0.000136013168 -0.000621688852)
(2.522747042 0.007300849928 -0.00061681478)
(2.524824667 0.006372577283 -0.0006159723358)
(2.524549685 0.001804651546 -0.0006150588771)
(2.521236778 0.003005545194 -0.0006103785972)
(2.524496563 0.004729496422 -0.00061350074)
(2.524337998 -0.0006374319463 -0.0006128467519)
(2.521155081 0.0009043754354 -0.0006094170291)
(2.524384194 0.002645717754 -0.0006125850843)
(2.524384179 -0.002645670029 -0.000612595771)
(2.521155006 -0.000904285124 -0.0006094392416)
(2.524337795 0.0006374625389 -0.0006128798819)
(2.524496322 -0.00472950901 -0.0006135511538)
(2.521236479 -0.003005570812 -0.0006104366471)
(2.524549334 -0.001804661778 -0.000615115627)
(2.524824285 -0.006372550649 -0.0006160186722)
(2.522746623 -0.00730070256 -0.0006168409587)
(2.515809166 0.0001360182795 -0.0006216850481)
(2.511894869 3.066118735e-05 -0.01116328967)
(2.519306243 0.007305126772 -0.01105401963)
(2.520868447 0.006224172827 -0.01120363007)
(2.520600789 0.001971439979 -0.01121254017)
(2.517790642 0.003016231219 -0.01104590767)
(2.520539317 0.004569697907 -0.01121067588)
(2.52037616 -0.0004729209074 -0.01121245179)
(2.517714179 0.0009088107845 -0.01104848946)
(2.520428655 0.00248499488 -0.01121119643)
(2.520428634 -0.002484943602 -0.01121120325)
(2.517714101 -0.0009087109561 -0.01104850956)
(2.520375942 0.0004729551358 -0.01121247875)
(2.520539065 -0.004569716428 -0.01121071816)
(2.517790327 -0.003016257205 -0.0110459594)
(2.520600427 -0.001971445607 -0.01121259145)
(2.520868051 -0.006224129342 -0.01120367628)
(2.519305827 -0.007304957084 -0.0110540484)
(2.511894449 -3.064909728e-05 -0.0111633074)
(2.681111708 -0.0005780894841 -0.01550306916)
(2.691709717 0.009166085542 -0.0157128841)