/*--------------------------------*- C++ -*----------------------------------*\
  =========                 |
  \\      /  F ield         | OpenFOAM: The Open Source CFD Toolbox
   \\    /   O peration     | Website:  https://openfoam.org
    \\  /    A nd           | Version:  7
     \\/     M anipulation  |
\*---------------------------------------------------------------------------*/
FoamFile
{
    version     2.0;
    format      ascii;
    class       volVectorField;
    location    "2";
    object      Uavg;
}
// * * * * * * * * * * * * * * * * * * * * * * * * * * * * * * * * * * * * * //

dimensions      [0 1 -1 0 0 0 0];

internalField   nonuniform List<vector> 
10692
(
(3.252606517e-19 2.64697796e-23 -1.058791184e-21)
(0 0 0)
(-6.505213035e-19 -1.270549421e-21 1.799945013e-21)
(3.794707604e-19 1.852884572e-22 -1.376428539e-21)
(-3.469446952e-18 -2.964615315e-21 1.185846126e-20)
(-9.215718466e-19 -1.32348898e-21 2.64697796e-21)
(1.084202172e-18 -3.705769144e-22 -3.388131789e-21)
(-8.67361738e-19 -4.235164736e-22 0)
(-2.568447637e-18 -2.093604252e-21 7.31609245e-21)
(-1.071302898e-17 9.505142541e-21 3.090626929e-20)
(-1.734723476e-18 6.352747104e-22 3.388131789e-21)
(-7.589415207e-19 -2.249931266e-22 2.117582368e-21)
(0 -4.235164736e-22 -2.117582368e-22)
(-1.301042607e-18 1.694065895e-21 3.388131789e-21)
(1.019150042e-17 -3.811648263e-21 -2.922263668e-20)
(-4.770489559e-18 9.740878893e-21 1.365840627e-20)
(0 0 3.388131789e-21)
(-9.215718466e-18 8.337980575e-22 2.615214225e-20)
(0 0 0)
(-1.387778781e-17 0 0)
(-2.602085214e-18 -4.235164736e-21 -1.694065895e-21)
(-2.602085214e-18 -6.352747104e-22 -1.694065895e-21)
(-1.387778781e-17 -1.355252716e-20 -1.355252716e-20)
(-1.474514955e-17 -2.032879073e-20 -1.694065895e-20)
(1.127570259e-17 -3.811648263e-21 1.355252716e-20)
(-1.387778781e-17 0 -1.355252716e-20)
(-3.099108614e-17 -2.685640416e-20 -3.495801875e-20)
(2.795532006e-17 -2.438908915e-20 3.156988696e-20)
(0 -3.388131789e-21 2.710505431e-20)
(-8.67361738e-19 -6.352747104e-22 -8.470329473e-22)
(-5.421010862e-17 7.792703115e-20 -6.09863722e-20)
(0 0 0)
(8.67361738e-19 -2.117582368e-22 8.470329473e-22)
(2.602085214e-18 -4.235164736e-21 2.541098842e-21)
(-1.387778781e-17 2.710505431e-20 -2.710505431e-20)
(4.33680869e-18 -2.64697796e-22 5.929230631e-21)
(-7.047314121e-19 -6.6174449e-23 -1.482307658e-21)
(-1.040834086e-17 -1.6093626e-20 -2.202285663e-20)
(1.029992064e-18 2.117582368e-21 2.329340605e-21)
(9.215718466e-19 3.441071348e-22 2.223461487e-21)
(-8.239936511e-18 -8.046812999e-21 -1.863472484e-20)
(1.680513367e-18 2.435219723e-21 3.599890026e-21)
(-8.67361738e-19 2.64697796e-22 -1.905824131e-21)
(-2.602085214e-18 -6.352747104e-22 -6.776263578e-21)
(-1.590002768e-19 -2.020997086e-22 -3.246376042e-22)
(-8.785667646e-18 7.772456675e-21 -1.958063666e-20)
(-3.035766083e-18 4.235164736e-22 -5.082197684e-21)
(-5.637851297e-18 -1.654361225e-21 -1.259961509e-20)
(2.710505431e-19 -4.235164736e-22 8.470329473e-22)
(-1.301042607e-17 1.016439537e-20 -2.710505431e-20)
(5.692061406e-18 -2.183756817e-21 1.259961509e-20)
(-2.168404345e-18 4.235164736e-21 -4.65868121e-21)
(-4.770489559e-18 7.623296525e-21 -1.016439537e-20)
(8.619407271e-18 -8.106370003e-22 1.937587867e-20)
(0 1.98523347e-23 5.29395592e-23)
(-4.33680869e-19 -8.470329473e-22 -4.235164736e-22)
(4.445228907e-18 8.682087709e-21 4.393983414e-21)
(2.439454888e-18 9.793818453e-22 2.329340605e-21)
(3.035766083e-18 2.117582368e-21 2.541098842e-21)
(3.794707604e-19 4.764560328e-22 3.705769144e-22)
(2.76471554e-18 -8.602678371e-22 2.699917519e-21)
(3.035766083e-18 8.470329473e-22 3.811648263e-21)
(4.33680869e-19 5.823351512e-22 4.235164736e-22)
(-2.873135757e-18 2.541098842e-21 -2.64697796e-21)
(0 2.117582368e-22 8.470329473e-22)
(-2.114194236e-18 -5.95570041e-22 -1.747005454e-21)
(2.547875105e-18 -3.546950467e-21 2.541098842e-21)
(1.647987302e-17 -1.43995601e-20 1.567010952e-20)
(-8.131516294e-19 2.249931266e-22 -9.529120657e-22)
(-9.703609444e-18 1.958763691e-20 -9.687939334e-21)
(8.67361738e-19 -2.541098842e-21 1.270549421e-21)
(4.662069342e-18 -4.698385879e-22 4.446922973e-21)
(1.301042607e-18 5.29395592e-23 1.694065895e-21)
(-1.387778781e-17 0 -1.355252716e-20)
(-1.170938346e-17 -2.541098842e-20 -1.6093626e-20)
(-1.734723476e-17 -6.352747104e-21 -2.456395547e-20)
(0 -1.355252716e-20 -2.710505431e-20)
(4.33680869e-19 0 0)
(3.469446952e-18 -1.270549421e-21 5.082197684e-21)
(0 -3.388131789e-21 0)
(1.301042607e-18 1.270549421e-21 1.694065895e-21)
(-3.035766083e-18 3.388131789e-21 -5.929230631e-21)
(0 0 -1.355252716e-20)
(-2.602085214e-18 -1.058791184e-21 -4.235164736e-21)
(4.33680869e-19 -8.470329473e-22 8.470329473e-22)
(-1.387778781e-17 0 -2.710505431e-20)
(8.500145032e-17 -3.028142786e-20 1.168905467e-19)
(2.168404345e-18 -4.235164736e-21 1.694065895e-21)
(-1.387778781e-17 2.710505431e-20 0)
(5.854691731e-17 -4.65868121e-21 8.046812999e-20)
(2.710505431e-18 2.713152409e-22 5.082197684e-21)
(1.431146868e-17 2.117582368e-20 2.625802136e-20)
(-1.95156391e-18 -4.129285618e-21 -3.705769144e-21)
(5.421010862e-19 2.514629062e-22 1.270549421e-21)
(-4.33680869e-18 -3.388131789e-21 -8.470329473e-21)
(5.421010862e-20 0 -2.117582368e-22)
(2.385244779e-18 -4.764560328e-22 4.65868121e-21)
(2.602085214e-18 6.352747104e-22 5.929230631e-21)
(3.848917712e-18 3.229313111e-21 6.458626223e-21)
(-5.204170428e-18 4.393983414e-21 -9.634999775e-21)
(-4.33680869e-18 1.058791184e-21 -7.623296525e-21)
(-5.963111949e-18 -1.826414793e-21 -1.111730743e-20)
(-1.246832498e-18 1.905824131e-21 -2.01170325e-21)
(1.734723476e-18 -1.694065895e-21 2.541098842e-21)
(1.208885422e-17 -5.148372133e-21 2.24463731e-20)
(-1.463672933e-18 2.964615315e-21 -2.964615315e-21)
(2.602085214e-18 -4.235164736e-21 4.235164736e-21)
(1.626303259e-19 -1.98523347e-23 5.29395592e-22)
(1.626303259e-19 6.6174449e-24 9.926167351e-24)
(2.949029909e-17 4.404571326e-20 2.117582368e-21)
(4.33680869e-19 6.352747104e-22 4.301339185e-23)
(-1.734723476e-18 -7.146840492e-22 -1.786710123e-22)
(3.903127821e-18 2.964615315e-21 1.005851625e-21)
(-1.517883041e-18 -2.435219723e-21 -1.522012327e-22)
(2.547875105e-18 -7.411538288e-22 2.481541838e-22)
(1.301042607e-18 2.117582368e-22 1.058791184e-22)
(-2.873135757e-18 -2.541098842e-21 -2.812414083e-22)
(-3.089976192e-18 2.541098842e-21 1.952146246e-22)
(8.67361738e-19 -2.117582368e-22 7.411538288e-22)
(1.19262239e-18 3.30872245e-22 5.492479267e-22)
(-4.824699668e-18 7.146840492e-21 -4.566036981e-22)
(8.67361738e-19 0 1.058791184e-22)
(3.523657061e-18 -1.33672387e-21 3.705769144e-22)
(2.710505431e-18 -5.188076802e-21 2.547716287e-22)
(0 8.470329473e-22 1.058791184e-22)
(4.987329993e-18 -4.63221143e-22 4.599124206e-22)
(-2.602085214e-18 -1.058791184e-22 -8.470329473e-22)
(0 -2.710505431e-20 -1.355252716e-20)
(4.770489559e-18 1.185846126e-20 3.388131789e-21)
(-1.734723476e-18 2.117582368e-22 -4.235164736e-22)
(0 -1.355252716e-20 -6.776263578e-21)
(1.734723476e-18 3.388131789e-21 1.270549421e-21)
(1.301042607e-17 -4.235164736e-21 8.046812999e-21)
(-1.387778781e-17 0 0)
(-6.335945299e-19 -1.444975963e-21 -5.467247275e-22)
(3.055757449e-17 -2.65071113e-20 1.918144957e-20)
(-1.387778781e-17 0 -6.776263578e-21)
(-8.67361738e-19 0 -4.235164736e-22)
(-5.464378949e-17 7.877406409e-20 -3.345780142e-20)
(0 0 6.776263578e-21)
(4.33680869e-19 -4.235164736e-22 -8.470329473e-22)
(2.992397996e-17 -6.013933926e-20 1.821120837e-20)
(-1.387778781e-17 2.710505431e-20 -1.355252716e-20)
(3.469446952e-18 -3.176373552e-22 2.541098842e-21)
(-2.243169046e-18 -2.283256241e-22 -2.611722557e-21)
(-1.266939577e-18 -1.438870806e-21 -2.173264016e-21)
(-3.641710052e-18 -7.332855561e-21 -4.480480274e-21)
(-8.67361738e-19 -3.705769144e-22 -1.164670302e-21)
(4.33680869e-19 4.235164736e-22 -8.470329473e-22)
(1.220334359e-18 1.288794235e-21 1.429023253e-21)
(4.171731986e-18 -1.181218722e-21 3.900330259e-21)
(6.335949006e-19 2.64592906e-22 7.388192941e-22)
(7.57133783e-18 5.488124665e-21 8.874553867e-21)
(-6.175102382e-18 5.15702373e-21 -7.096286055e-21)
(-3.142493926e-17 8.31140293e-21 -3.835588796e-20)
(-1.735946661e-18 -9.644849481e-22 -2.523223987e-21)
(-5.058404897e-18 7.488666704e-21 -6.055005568e-21)
(2.992397996e-17 -2.583450489e-20 3.472835084e-20)
(-4.312225943e-19 -3.271681946e-22 -3.713353934e-22)
(-3.250176257e-18 6.915714288e-21 -3.919700142e-21)
(-2.602085214e-17 3.811648263e-20 -3.134021905e-20)
(9.144680377e-18 -9.049467359e-22 1.072681618e-20)
(-1.076725702e-17 -1.048841242e-21 5.682216991e-21)
(2.945619606e-17 4.379051817e-20 -1.561442788e-20)
(-7.254521781e-18 -1.458412195e-20 4.004024241e-21)
(-9.595189226e-18 -3.613124916e-21 4.976318565e-21)
(-5.507747036e-17 -4.870439447e-20 3.006966963e-20)
(2.574373245e-18 3.952222126e-21 -1.190795237e-21)
(2.446378499e-21 -9.921359786e-24 -9.272657136e-24)
(-3.359334094e-17 -8.734922378e-21 1.789590555e-20)
(5.130699405e-18 4.562920544e-21 -2.168306827e-21)
(1.824708479e-17 -1.462573379e-20 -8.58321627e-21)
(-2.842302066e-17 7.358706595e-21 1.548599838e-20)
(1.952787095e-18 6.336127031e-22 -1.103135818e-21)
(3.963355551e-19 -5.006448892e-22 -1.12453079e-22)
(8.370040772e-17 -7.369186641e-20 -4.531626268e-20)
(2.220156179e-18 -8.375021079e-22 -1.845299782e-22)
(1.826637635e-17 -3.51854389e-20 -8.653445169e-21)
(2.558717127e-17 -3.642241673e-20 -1.355252716e-20)
(1.79458306e-19 -1.487810527e-23 -5.949500372e-23)
(-2.602085214e-18 -3.176373552e-22 -1.32348898e-22)
(0 0 0)
(-8.67361738e-19 -5.082197684e-21 -1.058791184e-22)
(-5.637851297e-18 -1.905824131e-21 -3.176373552e-22)
(-1.387778781e-17 -2.710505431e-20 -8.470329473e-22)
(-1.301042607e-18 -1.694065895e-21 -7.940933881e-23)
(-8.67361738e-19 6.352747104e-22 -7.940933881e-23)
(-1.387778781e-17 -3.388131789e-21 -1.694065895e-21)
(-2.949029909e-17 -2.668153784e-20 -1.905824131e-21)
(2.818925648e-17 -2.4140439e-20 1.720535674e-21)
(0 -3.388131789e-21 0)
(-1.734723476e-18 -4.235164736e-22 -5.29395592e-23)
(-3.165870344e-17 4.48927462e-20 -1.98523347e-21)
(-1.387778781e-17 0 0)
(-3.903127821e-18 1.270549421e-21 -1.852884572e-22)
(5.464378949e-17 -1.11808349e-19 3.441071348e-21)
(-1.387778781e-17 0 -8.470329473e-22)
(-5.767955558e-17 4.393983414e-21 -3.626359805e-21)
(1.57209315e-18 1.654361225e-22 1.032321404e-21)
(0 0 4.235164736e-22)
(-1.95156391e-18 -3.917527381e-21 -1.34995876e-21)
(3.415236843e-18 1.760240344e-21 2.276401046e-21)
(-4.33680869e-19 8.470329473e-22 0)
(5.312590645e-18 6.935082256e-21 3.388131789e-21)
(-3.903127821e-18 1.204374972e-21 -2.64697796e-21)
(-8.67361738e-19 -4.235164736e-22 -8.470329473e-22)
(3.195966248e-18 1.76256444e-21 1.67844235e-21)
(-3.228304913e-19 3.550179277e-22 -6.725907255e-22)
(8.67361738e-19 2.117582368e-22 -8.470329473e-22)
(4.391018799e-18 1.33672387e-21 2.991085095e-21)
(-2.005774019e-18 3.441071348e-21 -1.32348898e-21)
(-3.469446952e-18 3.388131789e-21 -2.541098842e-21)
(3.361026735e-18 -1.760240344e-21 1.270549421e-21)
(-8.29414662e-18 1.662302159e-20 -5.479244378e-21)
(-2.602085214e-18 5.929230631e-21 -2.541098842e-21)
(1.956984921e-17 -1.905824131e-21 1.304960134e-20)
(0 0 -5.29395592e-23)
(5.811323645e-17 8.385626178e-20 -5.929230631e-20)
(-5.963111949e-18 -1.228197774e-20 5.823351512e-21)
(-3.306816626e-18 -1.191140082e-21 3.229313111e-21)
(-2.168404345e-18 -2.117582368e-21 1.694065895e-21)
(-6.776263578e-18 -9.846758012e-21 6.776263578e-21)
(5.583641188e-18 -6.882142696e-22 -5.188076802e-21)
(0 2.117582368e-22 -4.235164736e-22)
(-8.021881345e-18 -6.900883569e-21 8.104320002e-21)
(4.324661372e-19 2.304991094e-22 -2.163256807e-22)
(-2.168404345e-18 6.352747104e-22 3.811648263e-21)
(2.493664997e-18 7.411538288e-22 -2.488159283e-21)
(2.76471554e-18 -3.864587822e-21 -2.541098842e-21)
(0 0 0)
(-9.757819552e-19 -1.32348898e-23 1.058791184e-21)
(-5.149960319e-18 1.03761536e-20 5.188076802e-21)
(-3.252606517e-17 4.573977915e-20 3.261076847e-20)
(-2.276824562e-18 2.382280164e-22 2.276401046e-21)
(-1.301042607e-18 -1.588186776e-22 1.058791184e-21)
(1.387778781e-17 0 0)
(9.540979118e-18 1.863472484e-20 -3.599890026e-21)
(-1.864827737e-17 -6.352747104e-21 6.988021815e-21)
(0 0 0)
(-4.33680869e-19 -8.470329473e-22 2.117582368e-22)
(2.168404345e-18 -8.470329473e-22 -1.058791184e-21)
(0 -3.388131789e-21 0)
(-8.67361738e-19 -8.470329473e-22 2.117582368e-22)
(8.586881206e-17 -7.580944878e-20 -3.303428494e-20)
(-1.387778781e-17 3.388131789e-21 6.776263578e-21)
(1.301042607e-18 4.235164736e-22 -6.352747104e-22)
(2.775557562e-17 -4.065758147e-20 -1.079967008e-20)
(0 0 0)
(5.59448321e-17 -1.990527426e-20 -2.117582368e-20)
(2.818925648e-17 -5.675120747e-20 -1.058791184e-20)
(0 0 6.776263578e-21)
(5.551115123e-17 -4.341043855e-21 -2.096406544e-20)
(1.00288701e-17 9.793818453e-22 2.302870825e-21)
(2.688821388e-17 3.896351557e-20 6.67038446e-21)
(4.33680869e-18 8.787966828e-21 1.005851625e-21)
(2.005774019e-18 7.27918939e-22 4.499862532e-22)
(2.558717127e-17 2.24463731e-20 6.352747104e-21)
(3.686287386e-18 5.241016361e-21 6.088049308e-22)
(-4.878909776e-19 1.32348898e-22 -1.058791184e-22)
(2.905661822e-17 7.411538288e-21 6.882142696e-21)
(-3.105614408e-18 -2.521005508e-21 -7.143583045e-22)
(2.075622344e-18 -1.078884518e-21 4.364256186e-22)
(8.67361738e-19 -2.117582368e-22 -2.117582368e-22)
(2.087089182e-17 5.33366059e-21 3.136668883e-21)
(-8.456776945e-18 1.244079641e-20 -1.97199858e-21)
(2.818925648e-17 -2.541098842e-20 6.776263578e-21)
(-1.078781162e-17 4.049876279e-21 -2.488159283e-21)
(-1.035413075e-17 2.138758192e-20 -2.395515054e-21)
(5.507747036e-17 -8.131516294e-20 1.387016451e-20)
(2.547875105e-18 -2.448454613e-22 5.29395592e-22)
(2.276824562e-18 2.382280164e-22 -4.235164736e-21)
(-2.992397996e-17 -4.319868031e-20 5.251604273e-20)
(2.710505431e-19 3.176373552e-22 -5.29395592e-22)
(-1.029992064e-18 -3.838118042e-22 2.01170325e-21)
(-4.33680869e-19 -4.235164736e-22 8.470329473e-22)
(1.084202172e-19 -5.29395592e-23 -1.058791184e-22)
(2.168404345e-19 -1.058791184e-22 -2.117582368e-22)
(0 2.117582368e-22 8.470329473e-22)
(-2.762391404e-18 -2.472885039e-21 5.44076419e-21)
(2.585589768e-17 -2.124403748e-20 -4.588658742e-20)
(0 0 0)
(4.662069342e-18 4.764560328e-22 -8.470329473e-21)
(-2.818925648e-18 4.288104295e-21 5.717472394e-21)
(4.33680869e-19 -1.694065895e-21 -1.694065895e-21)
(-2.547875105e-18 9.661469555e-22 6.035109749e-21)
(8.565197163e-18 -1.683477983e-20 -1.418780187e-20)
(2.862293735e-17 -4.235164736e-20 -5.166900978e-20)
(1.626303259e-19 -1.32348898e-23 -1.058791184e-22)
(-1.301042607e-18 -1.058791184e-22 2.541098842e-21)
(0 0 2.710505431e-20)
(-7.372574773e-18 -1.43995601e-20 1.355252716e-20)
(-2.168404345e-18 -8.470329473e-22 3.388131789e-21)
(0 0 0)
(4.33680869e-19 0 0)
(2.602085214e-18 -8.470329473e-22 -3.388131789e-21)
(0 0 0)
(-8.67361738e-19 -1.270549421e-21 2.541098842e-21)
(2.949029909e-17 -2.625802136e-20 -5.590417452e-20)
(-1.387778781e-17 3.388131789e-21 2.710505431e-20)
(1.734723476e-18 6.352747104e-22 -2.541098842e-21)
(2.949029909e-17 -4.319868031e-20 -5.251604273e-20)
(-1.387778781e-17 0 5.421010862e-20)
(5.811323645e-17 -2.117582368e-20 -1.101142831e-19)
(2.471980953e-17 -5.166900978e-20 -4.65868121e-20)
(0 2.710505431e-20 0)
(5.247538515e-17 -4.023406499e-21 -9.910285483e-20)
(-4.662069342e-18 -4.499862532e-22 1.408192275e-20)
(2.168404345e-18 3.388131789e-21 -6.776263578e-21)
(1.095044194e-17 2.202285663e-20 -3.314016406e-20)
(-6.505213035e-19 -1.852884572e-22 1.694065895e-21)
(1.09287579e-16 9.571472304e-20 -3.354250471e-19)
(-7.209944447e-18 -1.042909316e-20 2.223461487e-20)
(-5.421010862e-20 0 0)
(-2.168404345e-18 -4.235164736e-22 6.776263578e-21)
(3.679615384e-18 1.092468403e-21 -1.10308886e-20)
(8.138188297e-18 -7.127578152e-21 -2.528564901e-20)
(-5.290906602e-17 1.43995601e-20 1.626303259e-19)
(-1.246832498e-18 -2.911675756e-22 3.282252671e-21)
(1.544988096e-17 -2.032879073e-20 -4.711620769e-20)
(-5.247538515e-17 4.65868121e-20 1.6093626e-19)
(5.421010862e-19 -1.138200523e-21 -1.482307658e-21)
(-2.818925648e-18 5.823351512e-21 8.787966828e-21)
(2.168404345e-18 -3.388131789e-21 -5.082197684e-21)
(-9.86623977e-18 9.462946208e-22 3.017554875e-20)
(1.734723476e-18 0 -6.776263578e-21)
(0 0 -5.421010862e-20)
(4.33680869e-18 3.388131789e-21 -1.694065895e-20)
(-8.67361738e-19 -4.235164736e-22 0)
(-1.387778781e-17 -2.710505431e-20 0)
(-3.122502257e-17 -6.09863722e-20 1.423015351e-19)
(3.556183126e-17 -6.882142696e-21 -1.490777987e-19)
(-1.387778781e-17 -6.776263578e-21 5.421010862e-20)
(-3.070440589e-18 -2.162211966e-21 8.851508174e-21)
(3.689754837e-17 -3.680130361e-20 -1.647055705e-19)
(0 6.776263578e-21 1.084202172e-19)
(8.67361738e-19 -1.058791184e-22 -3.388131789e-21)
(-6.591949209e-17 1.202786785e-19 2.879912021e-19)
(0 0 0)
(-1.734723476e-18 1.270549421e-21 3.388131789e-21)
(1.734723476e-18 -5.082197684e-21 -6.776263578e-21)
(-2.775557562e-17 2.710505431e-20 5.421010862e-20)
(1.361757929e-16 6.855672917e-21 -6.09863722e-19)
(1.387778781e-17 0 0)
(2.430111717 0.004297198253 0.003006134949)
(-1.387778781e-17 5.421010862e-20 0)
(0 0 0)
(2.432870831 0.003057937459 0.003004049585)
(0 -5.421010862e-20 0)
(0 0 0)
(2.432782497 0.0009411562876 0.003003318892)
(0 1.355252716e-20 -2.710505431e-20)
(0 1.355252716e-20 0)
(2.432782455 -0.0009410111003 0.003003306911)
(-1.387778781e-17 -3.388131789e-21 0)
(0 0 0)
(2.432870617 -0.003057949742 0.003004049732)
(-1.387778781e-17 0 0)
(-1.387778781e-17 0 -2.710505431e-20)
(2.430111468 -0.004297258599 0.003006160673)
(-1.387778781e-17 -8.470329473e-22 0)
(-4.735231474e-18 2.734721809e-22 -1.270105637e-20)
(0 0 5.421010862e-20)
(1.749532647e-17 3.35100651e-20 3.443192716e-20)
(-1.828835965e-17 -1.428387581e-20 -4.288487116e-20)
(-1.387778781e-17 0 -5.421010862e-20)
(-5.298281152e-17 -9.487877689e-20 -1.225056787e-19)
(-6.071532166e-18 2.964615315e-21 -1.185846126e-20)
(-1.387778781e-17 0 -5.421010862e-20)
(-5.117434254e-17 -4.997494389e-20 -1.185846126e-19)
(2.428612866e-17 -2.456395547e-20 5.929230631e-20)
(-1.387778781e-17 6.776263578e-21 -5.421010862e-20)
(-7.929840369e-17 -1.485659604e-20 -1.873131528e-19)
(-7.54604712e-17 1.372193375e-19 -1.778769189e-19)
(-2.775557562e-17 2.710505431e-20 -5.421010862e-20)
(6.274712317e-17 -4.867752689e-20 1.474592586e-19)
(-3.295974604e-17 8.131516294e-20 -7.962109704e-20)
(-1.387778781e-17 0 0)
(-7.806255642e-18 -3.705769144e-22 -2.032879073e-20)
(-8.67361738e-19 7.940933881e-23 -1.694065895e-21)
(0 -2.710505431e-20 0)
(-1.040834086e-17 -2.202285663e-20 -1.863472484e-20)
(1.214306433e-17 9.31736242e-21 2.202285663e-20)
(0 0 0)
(1.908195824e-17 3.04931861e-20 3.04931861e-20)
(-2.775557562e-17 4.976318565e-21 -4.743384505e-20)
(-1.387778781e-17 -6.776263578e-21 -2.710505431e-20)
(7.732032428e-18 6.699363884e-21 1.353533885e-20)
(4.170758664e-17 -3.973364883e-20 7.455608766e-20)
(-1.387778781e-17 6.776263578e-21 0)
(-3.209238431e-17 -5.929230631e-21 -5.421010862e-20)
(4.943961907e-17 -8.978549241e-20 9.14795583e-20)
(1.387778781e-17 0 2.710505431e-20)
(1.05818132e-16 -8.385626178e-20 1.897353802e-19)
(-1.275021755e-16 3.117081246e-19 -2.303929617e-19)
(-1.387778781e-17 0 0)
(8.67361738e-18 3.441071348e-22 1.863472484e-20)
(0 8.470329473e-22 -2.710505431e-20)
(2.433936318 0.004294838334 0.004936456793)
(-1.387778781e-17 -5.421010862e-20 0)
(0 -1.355252716e-20 0)
(2.436695178 0.003055745973 0.004936827857)
(0 -5.421010862e-20 -2.710505431e-20)
(0 0 2.710505431e-20)
(2.436605924 0.0009410346978 0.004935634779)
(1.387778781e-17 0 0)
(0 0 -2.710505431e-20)
(2.436605869 -0.0009409388928 0.004935616165)
(0 0 0)
(-1.387778781e-17 0 0)
(2.436695012 -0.003055733095 0.004936838527)
(0 0 0)
(1.387778781e-17 0 2.710505431e-20)
(2.433936144 -0.004294865516 0.004936537979)
(0 0 0)
(1.931638584e-17 -7.768396427e-22 4.922131091e-20)
(0 0 -5.421010862e-20)
(4.373904828e-17 1.017736059e-19 1.061944407e-19)
(-1.301042607e-17 -9.740878893e-21 -3.388131789e-20)
(1.387778781e-17 0 0)
(-2.010737999e-22 1.692034835e-21 1.212339088e-21)
(3.382710778e-17 -2.435219723e-21 8.131516294e-20)
(0 -6.776263578e-21 -5.421010862e-20)
(-2.024593745e-17 -1.979700607e-20 -4.991200955e-20)
(0 -8.470329473e-22 -1.694065895e-21)
(-1.387778781e-17 0 0)
(-1.459728299e-17 -2.830150913e-21 -4.37655159e-20)
(5.290906602e-17 -8.978549241e-20 1.304430739e-19)
(-1.387778781e-17 0 0)
(3.617966751e-18 -4.573248066e-21 4.633436743e-21)
(-1.908195824e-17 4.912791094e-20 -4.912791094e-20)
(-2.775557562e-17 2.710505431e-20 -5.421010862e-20)
(6.505213035e-17 2.541098842e-21 1.6093626e-19)
(3.122502257e-17 -1.217609862e-21 1.249373597e-20)
(-1.387778781e-17 -5.421010862e-20 -6.776263578e-21)
(-1.127570259e-17 -2.879912021e-20 -4.235164736e-21)
(-2.255140519e-17 -1.567010952e-20 -9.529120657e-21)
(-1.387778781e-17 0 -6.776263578e-21)
(-1.908195824e-17 -3.896351557e-20 -8.258571236e-21)
(4.770489559e-17 -8.682087709e-21 1.926999955e-20)
(0 6.776263578e-21 0)
(3.6429193e-17 3.557538378e-20 2.265813134e-20)
(-1.734723476e-18 0 -2.117582368e-22)
(0 6.776263578e-21 -6.776263578e-21)
(-5.551115123e-17 -1.016439537e-20 -2.265813134e-20)
(-6.591949209e-17 1.253608762e-19 -2.64697796e-20)
(0 0 0)
(-8.066464163e-17 6.056285573e-20 -3.261076847e-20)
(6.331740687e-17 -1.558540623e-19 2.562274665e-20)
(-1.387778781e-17 2.710505431e-20 -6.776263578e-21)
(6.765421556e-17 2.620508181e-21 2.64697796e-20)
(-2.775557562e-17 8.470329473e-22 -1.355252716e-20)
(2.433719131 0.004293769772 0.002241878064)
(-1.387778781e-17 0 -1.355252716e-20)
(-1.387778781e-17 -1.355252716e-20 0)
(2.436476807 0.0030544806 0.002242214489)
(-1.387778781e-17 -5.421010862e-20 -1.355252716e-20)
(0 3.388131789e-21 -1.355252716e-20)
(2.436387748 0.0009406849401 0.002241716122)
(-2.775557562e-17 -2.710505431e-20 -1.355252716e-20)
(-1.387778781e-17 2.710505431e-20 -1.355252716e-20)
(2.436387717 -0.0009406441564 0.002241737785)
(1.387778781e-17 -3.388131789e-21 0)
(-1.387778781e-17 0 0)
(2.436476742 -0.003054456496 0.002242290196)
(1.387778781e-17 0 0)
(0 0 -1.355252716e-20)
(2.433719082 -0.004293765247 0.002242034249)
(-2.775557562e-17 -8.470329473e-22 -1.355252716e-20)
(-3.753098095e-17 1.491599921e-21 -5.540421807e-20)
(-1.387778781e-17 0 -2.710505431e-20)
(-4.250072516e-17 -1.033380196e-19 -6.09863722e-20)
(5.997437768e-18 4.351171308e-21 8.779389842e-21)
(1.387778781e-17 0 0)
(1.836255614e-17 2.469443134e-20 2.81792996e-20)
(7.084821014e-17 -1.294368106e-20 8.615698859e-20)
(0 0 0)
(1.064105191e-16 8.915399275e-20 1.576197589e-19)
(-7.25834113e-17 7.262930018e-20 -1.101859139e-19)
(0 0 0)
(-6.85215773e-17 -1.249373597e-20 -9.994988778e-20)
(-3.209238431e-17 5.759824041e-20 -4.743384505e-20)
(-1.387778781e-17 0 0)
(-3.295974604e-17 2.583450489e-20 -4.743384505e-20)
(4.425746014e-17 -1.087546676e-19 4.365888848e-20)
(-1.387778781e-17 2.710505431e-20 0)
(9.801187639e-17 3.917527381e-21 1.456896669e-19)
(3.319417226e-17 -1.306311464e-21 -1.574654949e-20)
(-1.387778781e-17 2.710505431e-20 -6.776263578e-21)
(4.076600169e-17 1.016439537e-19 -1.990527426e-20)
(-2.334467253e-17 -1.832721494e-20 1.366698326e-20)
(-1.387778781e-17 0 6.776263578e-21)
(-1.022005313e-16 -1.829434514e-19 5.274585727e-20)
(-3.962318757e-17 1.474362608e-20 1.84515804e-20)
(0 0 6.776263578e-21)
(3.76548181e-18 -4.551456381e-21 -1.393440077e-21)
(-3.932731307e-17 3.758574132e-20 1.87576155e-20)
(0 0 0)
(-3.469446952e-18 -8.470329473e-22 1.694065895e-21)
(7.025630078e-17 -1.185846126e-19 -3.388131789e-20)
(-1.387778781e-17 0 6.776263578e-21)
(2.602085214e-18 -8.470329473e-21 -1.694065895e-21)
(-2.16862446e-16 5.322711413e-19 1.054189102e-19)
(-1.387778781e-17 2.710505431e-20 6.776263578e-21)
(-3.122502257e-17 -1.32348898e-21 1.6093626e-20)
(1.387778781e-17 0 1.694065895e-21)
(2.43355824 0.004293936825 0.0002789730209)
(0 0 -1.694065895e-21)
(-2.775557562e-17 -1.355252716e-20 -1.694065895e-21)
(2.436315861 0.003054244097 0.0002795155947)
(-2.775557562e-17 -2.710505431e-20 0)
(1.387778781e-17 0 1.694065895e-21)
(2.436226814 0.0009405592542 0.0002796278088)
(-1.387778781e-17 -1.355252716e-20 -3.388131789e-21)
(1.387778781e-17 0 -1.694065895e-21)
(2.43622684 -0.0009405246083 0.0002796367187)
(-1.387778781e-17 -6.776263578e-21 -3.388131789e-21)
(0 0 0)
(2.436315863 -0.003054250289 0.0002795300618)
(-1.387778781e-17 0 -1.694065895e-21)
(0 0 -1.694065895e-21)
(2.433558227 -0.004293964074 0.0002790169471)
(0 0 0)
(3.09906127e-17 -1.181810271e-21 2.185197053e-20)
(-1.387778781e-17 0 -1.355252716e-20)
(-3.057994272e-17 -6.954043754e-20 -2.28642149e-20)
(4.864627079e-17 4.435301038e-20 3.322577836e-20)
(0 -2.710505431e-20 0)
(6.881742934e-17 1.178829897e-19 4.972676465e-20)
(-5.754172675e-17 1.076013913e-20 -4.210346813e-20)
(0 0 0)
(7.530695695e-18 7.007399282e-25 -1.597997829e-21)
(3.209232184e-17 -2.964685361e-20 1.583390884e-20)
(0 0 0)
(6.302155478e-17 1.189797648e-20 4.556446061e-20)
(8.67361738e-19 5.082197684e-21 1.270549421e-21)
(-1.387778781e-17 0 0)
(1.836268365e-16 -1.553895133e-19 1.115078206e-19)
(-1.121860193e-16 2.751153494e-19 -8.065130317e-20)
(-1.387778781e-17 0 0)
(-7.428796964e-17 -2.892330973e-21 -5.374928372e-20)
(6.938893904e-17 -2.779326858e-21 -7.962109704e-20)
(-1.387778781e-17 0 2.710505431e-20)
(6.331740687e-17 1.43995601e-19 -7.369186641e-20)
(-8.326672685e-17 -6.437450399e-20 9.571472304e-20)
(1.387778781e-17 0 1.355252716e-20)
(-2.081668171e-17 -3.896351557e-20 2.371692252e-20)
(7.372574773e-17 -6.246867986e-21 -7.70799982e-20)
(0 0 1.355252716e-20)
(-1.05818132e-16 -1.033380196e-19 1.211257115e-19)
(-3.903127821e-17 3.811648263e-20 4.404571326e-20)
(1.387778781e-17 0 -1.355252716e-20)
(2.949029909e-17 5.188076802e-21 -3.303428494e-20)
(7.112366252e-17 -1.219727444e-19 -8.131516294e-20)
(-2.775557562e-17 2.710505431e-20 1.355252716e-20)
(-1.474514955e-17 1.058791184e-20 1.524659305e-20)
(-6.505213035e-17 1.524659305e-19 8.131516294e-20)
(-1.387778781e-17 5.421010862e-20 2.710505431e-20)
(7.199102425e-17 2.911675756e-21 -6.945670167e-20)
(1.387778781e-17 0 -6.776263578e-21)
(2.433502463 0.004294216092 -0.001194777778)
(-1.387778781e-17 0 6.776263578e-21)
(1.387778781e-17 0 -6.776263578e-21)
(2.436260393 0.003054954682 -0.001194190288)
(0 0 0)
(-1.387778781e-17 -3.388131789e-21 0)
(2.43617134 0.000940700902 -0.001193395136)
(-2.775557562e-17 0 0)
(1.387778781e-17 0 0)
(2.436171357 -0.0009407257696 -0.001193410189)
(0 0 6.776263578e-21)
(-2.775557562e-17 8.131516294e-20 1.355252716e-20)
(2.436260381 -0.003055024188 -0.001194218099)
(0 1.355252716e-20 6.776263578e-21)
(0 0 6.776263578e-21)
(2.433502416 -0.004294271153 -0.001194800097)
(-1.387778781e-17 -8.470329473e-22 0)
(3.6429193e-17 -1.455837878e-21 9.529120657e-21)
(0 0 0)
(3.989863995e-17 9.825582188e-20 1.03761536e-20)
(-6.938893904e-18 -6.352747104e-21 -1.905824131e-21)
(-1.387778781e-17 0 0)
(1.546569441e-17 2.709292725e-20 -1.171431517e-21)
(-1.163003952e-18 7.580181305e-21 3.191757042e-22)
(-1.387778781e-17 0 0)
(7.53033788e-18 -8.251650907e-21 1.908407463e-21)
(-2.895604803e-18 5.390525969e-21 -1.123723737e-20)
(-1.387778781e-17 0 -3.388131789e-21)
(7.431942803e-17 6.07252053e-21 8.356587157e-21)
(-3.556183126e-17 6.606856989e-20 -9.105604183e-21)
(-1.387778781e-17 2.710505431e-20 -3.388131789e-21)
(-3.382710778e-17 2.710505431e-20 -8.470329473e-21)
(-4.01947846e-17 9.384859802e-20 -9.849884338e-21)
(1.387778781e-17 -2.710505431e-20 0)
(1.798088934e-16 7.245835259e-21 5.659595382e-21)
(2.602085214e-18 -7.940933881e-23 -6.776263578e-21)
(-1.387778781e-17 -2.710505431e-20 0)
(-3.382710778e-17 -8.470329473e-20 8.470329473e-20)
(-8.67361738e-18 -6.776263578e-21 2.371692252e-20)
(-1.387778781e-17 0 5.421010862e-20)
(-3.469446952e-18 -5.082197684e-21 3.388131789e-21)
(2.602085214e-18 -5.29395592e-22 0)
(1.387778781e-17 0 0)
(-2.91923747e-17 -3.758947577e-20 7.368039892e-20)
(-4.019656433e-17 3.928354167e-20 1.025024541e-19)
(0 0 0)
(-2.602085214e-18 -7.835054762e-21 6.776263578e-21)
(-7.112366252e-17 1.270549421e-19 1.778769189e-19)
(0 0 -5.421010862e-20)
(-3.729655473e-17 2.922263668e-20 9.14795583e-20)
(1.075528555e-16 -2.558039501e-19 -2.558039501e-19)
(-2.775557562e-17 0 5.421010862e-20)
(-4.857225733e-17 -1.852884572e-21 1.185846126e-19)
(0 8.470329473e-22 5.421010862e-20)
(2.431806872 0.00429132855 -0.005729890291)
(0 0 0)
(-1.387778781e-17 0 5.421010862e-20)
(2.434564259 0.00305343475 -0.005732112908)
(0 2.710505431e-20 2.710505431e-20)
(1.387778781e-17 0 2.710505431e-20)
(2.43447596 0.0009399963812 -0.005731370942)
(-1.387778781e-17 -1.355252716e-20 5.421010862e-20)
(0 1.355252716e-20 5.421010862e-20)
(2.434475972 -0.0009401005335 -0.005731374743)
(-1.387778781e-17 0 -2.710505431e-20)
(-1.387778781e-17 0 2.710505431e-20)
(2.434564251 -0.003053550864 -0.005732111955)
(1.387778781e-17 0 -2.710505431e-20)
(-1.387778781e-17 0 8.131516294e-20)
(2.431806834 -0.004291394127 -0.005729886705)
(-1.387778781e-17 -8.470329473e-22 2.710505431e-20)
(-6.331740687e-17 2.64697796e-21 2.778268067e-19)
(0 -2.710505431e-20 0)
(-1.720127994e-16 -4.210357751e-19 7.64595491e-19)
(1.396452398e-16 1.338312057e-19 -6.26804381e-19)
(1.387778781e-17 0 -5.421010862e-20)
(3.295974604e-17 6.09863722e-20 -1.423015351e-19)
(-6.591949209e-17 1.238785685e-20 2.947674656e-19)
(-1.387778781e-17 -6.776263578e-21 5.421010862e-20)
(5.722246248e-17 9.193502477e-21 -2.457166932e-19)
(1.216647656e-17 -1.258163427e-20 -5.921516785e-20)
(-1.387778781e-17 0 5.421010862e-20)
(-8.267255773e-17 -1.548950528e-20 3.71626432e-19)
(1.804112415e-16 -2.964615315e-19 -7.995991022e-19)
(0 0 5.421010862e-20)
(1.402165082e-16 -1.215796747e-19 -6.262432167e-19)
(1.249000903e-16 -3.032377951e-19 -5.556536134e-19)
(0 0 0)
(-6.85215773e-17 -2.938145536e-21 2.981555974e-19)
(-7.807670232e-19 1.899508732e-22 4.361202806e-21)
(-6.097820427e-19 -2.83246712e-21 -1.95900437e-21)
(1.334143927e-18 3.862916862e-21 -8.705839305e-21)
(6.169077011e-19 8.58838949e-22 -3.730341189e-21)
(5.204170428e-18 9.31736242e-21 -3.04931861e-20)
(4.555092998e-19 9.011224287e-22 -2.705670551e-21)
(-3.577867169e-18 4.102815838e-22 1.990527426e-20)
(1.734723476e-17 8.046812999e-21 -1.084202172e-19)
(3.396655265e-18 3.553195868e-21 -1.995249039e-20)
(-3.326871309e-18 3.618474652e-21 1.790954001e-20)
(-8.67361738e-19 1.270549421e-21 1.016439537e-20)