/*--------------------------------*- C++ -*----------------------------------*\
  =========                 |
  \\      /  F ield         | OpenFOAM: The Open Source CFD Toolbox
   \\    /   O peration     | Website:  https://openfoam.org
    \\  /    A nd           | Version:  7
     \\/     M anipulation  |
\*---------------------------------------------------------------------------*/
FoamFile
{
    version     2.0;
    format      ascii;
    class       surfaceScalarField;
    location    "0.095";
    object      alphaRhoPhi;
}
// * * * * * * * * * * * * * * * * * * * * * * * * * * * * * * * * * * * * * //

dimensions      [1 0 -1 0 0 0 0];

internalField   nonuniform List<scalar> 
54
(
2.656227585e-08
3.667746664e-08
2.314792044e-05
-2.656186207e-08
3.614425328e-08
2.322814225e-05
3.667804076e-08
2.314791971e-05
2.61469449e-08
-1.674715874e-08
2.323842665e-05
-2.614573541e-08
-1.633017968e-08
2.331590963e-05
-1.674745369e-08
2.323842663e-05
2.673251566e-08
2.316765306e-05
-2.673170951e-08
2.324826755e-05
2.316765221e-05
3.113652774e-08
2.061996578e-08
2.309615508e-05
-3.113498468e-08
2.042323289e-08
2.326997965e-05
2.062044351e-08
2.309615538e-05
3.106782289e-08
-4.211683366e-08
2.327008527e-05
-3.106600738e-08
-4.198783734e-08
2.34404466e-05
-4.211710013e-08
2.327008373e-05
3.137627312e-08
2.309415191e-05
-3.137439259e-08
2.326901625e-05
2.309415084e-05
4.230714104e-08
9.324076624e-09
-4.230627959e-08
9.671063418e-09
9.323538619e-09
4.260355676e-08
-7.341280056e-08
-4.260199783e-08
-7.334348238e-08
-7.341327259e-08
4.266527717e-08
-4.266522146e-08
)
;

boundaryField
{
    inlet
    {
        type            calculated;
        value           nonuniform List<scalar> 9(-2.321116494e-05 -2.321114955e-05 -2.321113748e-05 -2.321116339e-05 -2.321114802e-05 -2.321113591e-05 -2.321116494e-05 -2.321114955e-05 -2.321113748e-05);
    }
    outlet
    {
        type            calculated;
        value           nonuniform 0();
    }
    walls
    {
        type            calculated;
        value           uniform 0;
    }
    procBoundary0to1
    {
        type            processor;
        value           nonuniform List<scalar> 9(2.304450784e-05 2.334490704e-05 2.304450476e-05 2.331020465e-05 2.360864249e-05 2.331020441e-05 2.29780538e-05 2.328098937e-05 2.297805409e-05);
    }
}


// ************************************************************************* //
