/*--------------------------------*- C++ -*----------------------------------*\
  =========                 |
  \\      /  F ield         | OpenFOAM: The Open Source CFD Toolbox
   \\    /   O peration     | Website:  https://openfoam.org
    \\  /    A nd           | Version:  7
     \\/     M anipulation  |
\*---------------------------------------------------------------------------*/
FoamFile
{
    version     2.0;
    format      ascii;
    class       volScalarField;
    location    "0.095";
    object      cpavg;
}
// * * * * * * * * * * * * * * * * * * * * * * * * * * * * * * * * * * * * * //

dimensions      [0 2 -2 -1 0 0 0];

internalField   nonuniform List<scalar> 
27
(
1011.623294
1011.623294
1011.623294
1011.623295
1011.623295
1011.623295
1011.623296
1011.623296
1011.623296
1011.638483
1011.638483
1011.638483
1011.638485
1011.638485
1011.638485
1011.638487
1011.638487
1011.638487
1011.66423
1011.66423
1011.66423
1011.664234
1011.664233
1011.664234
1011.664238
1011.664238
1011.664238
)
;

boundaryField
{
    inlet
    {
        type            calculated;
        value           uniform 1011.338357;
    }
    outlet
    {
        type            calculated;
        value           nonuniform 0();
    }
    walls
    {
        type            calculated;
        value           nonuniform List<scalar> 
36
(
1011.454013
1011.564112
1011.660147
1011.454233
1011.564187
1011.65967
1011.454013
1011.564112
1011.660147
1011.454013
1011.564018
1011.660061
1011.454233
1011.564092
1011.659579
1011.454013
1011.564018
1011.660061
1011.454013
1011.454233
1011.454013
1011.564112
1011.564138
1011.564018
1011.660147
1011.659621
1011.660061
1011.454013
1011.454233
1011.454013
1011.564112
1011.564138
1011.564018
1011.660147
1011.659621
1011.660061
)
;
    }
    procBoundary0to1
    {
        type            processor;
        value           nonuniform List<scalar> 9(1011.69323 1011.69323 1011.69323 1011.693236 1011.693236 1011.693236 1011.693244 1011.693243 1011.693244);
    }
}


// ************************************************************************* //
