/*--------------------------------*- C++ -*----------------------------------*\
  =========                 |
  \\      /  F ield         | OpenFOAM: The Open Source CFD Toolbox
   \\    /   O peration     | Website:  https://openfoam.org
    \\  /    A nd           | Version:  7
     \\/     M anipulation  |
\*---------------------------------------------------------------------------*/
FoamFile
{
    version     2.0;
    format      ascii;
    class       volScalarField;
    location    "0.095";
    object      muavg;
}
// * * * * * * * * * * * * * * * * * * * * * * * * * * * * * * * * * * * * * //

dimensions      [1 -1 -1 0 0 0 0];

internalField   nonuniform List<scalar> 
27
(
1.861177551e-05
1.861177547e-05
1.861177551e-05
1.86117764e-05
1.861177636e-05
1.86117764e-05
1.861177735e-05
1.861177732e-05
1.861177735e-05
1.862517258e-05
1.862517244e-05
1.862517258e-05
1.862517411e-05
1.862517396e-05
1.862517411e-05
1.862517592e-05
1.862517577e-05
1.862517592e-05
1.864785086e-05
1.86478505e-05
1.864785086e-05
1.864785379e-05
1.864785343e-05
1.864785379e-05
1.864785743e-05
1.864785707e-05
1.864785743e-05
)
;

boundaryField
{
    inlet
    {
        type            calculated;
        value           uniform 1.835366622e-05;
    }
    outlet
    {
        type            calculated;
        value           nonuniform 0();
    }
    walls
    {
        type            calculated;
        value           nonuniform List<scalar> 
36
(
1.846085602e-05
1.856057663e-05
1.864581421e-05
1.84610578e-05
1.85606442e-05
1.864539522e-05
1.846085603e-05
1.856057663e-05
1.864581421e-05
1.846085582e-05
1.856049225e-05
1.864573876e-05
1.846105758e-05
1.856055854e-05
1.864531467e-05
1.846085582e-05
1.856049226e-05
1.864573876e-05
1.846085603e-05
1.846105768e-05
1.846085582e-05
1.856057663e-05
1.856060034e-05
1.856049226e-05
1.864581421e-05
1.86453517e-05
1.864573876e-05
1.846085602e-05
1.846105768e-05
1.846085582e-05
1.856057663e-05
1.856060034e-05
1.856049225e-05
1.864581421e-05
1.864535169e-05
1.864573876e-05
)
;
    }
    procBoundary0to1
    {
        type            processor;
        value           nonuniform List<scalar> 9(1.867334826e-05 1.867334759e-05 1.867334826e-05 1.867335335e-05 1.867335268e-05 1.867335335e-05 1.867335974e-05 1.867335906e-05 1.867335974e-05);
    }
}


// ************************************************************************* //
