/*--------------------------------*- C++ -*----------------------------------*\
  =========                 |
  \\      /  F ield         | OpenFOAM: The Open Source CFD Toolbox
   \\    /   O peration     | Website:  https://openfoam.org
    \\  /    A nd           | Version:  7
     \\/     M anipulation  |
\*---------------------------------------------------------------------------*/
FoamFile
{
    version     2.0;
    format      ascii;
    class       volScalarField;
    location    "0.095";
    object      p;
}
// * * * * * * * * * * * * * * * * * * * * * * * * * * * * * * * * * * * * * //

dimensions      [1 -1 -2 0 0 0 0];

internalField   nonuniform List<scalar> 
27
(
101329.134
101329.1273
101329.134
101329.0668
101329.0602
101329.0668
101329.0142
101329.0073
101329.0142
101327.6045
101327.6
101327.6045
101327.5377
101327.5331
101327.5377
101327.481
101327.4763
101327.481
101326.4392
101326.4348
101326.4392
101326.3734
101326.3689
101326.3734
101326.3176
101326.313
101326.3176
)
;

boundaryField
{
    inlet
    {
        type            zeroGradient;
    }
    outlet
    {
        type            totalPressure;
        rho             rho;
        psi             none;
        gamma           1;
        p0              nonuniform 0();
        value           nonuniform 0();
    }
    walls
    {
        type            zeroGradient;
    }
    procBoundary0to1
    {
        type            processor;
        value           nonuniform List<scalar> 9(101325.8549 101325.8516 101325.8549 101325.7947 101325.7912 101325.7947 101325.7418 101325.7382 101325.7418);
    }
}


// ************************************************************************* //
