/*--------------------------------*- C++ -*----------------------------------*\
  =========                 |
  \\      /  F ield         | OpenFOAM: The Open Source CFD Toolbox
   \\    /   O peration     | Website:  https://openfoam.org
    \\  /    A nd           | Version:  7
     \\/     M anipulation  |
\*---------------------------------------------------------------------------*/
FoamFile
{
    version     2.0;
    format      ascii;
    class       volScalarField;
    location    "0.095";
    object      pDyn;
}
// * * * * * * * * * * * * * * * * * * * * * * * * * * * * * * * * * * * * * //

dimensions      [1 -1 -2 0 0 0 0];

internalField   nonuniform List<scalar> 
27
(
1.718716276
1.73286649
1.718716235
1.733632076
1.748173103
1.733632047
1.720266599
1.734457792
1.720266541
1.891876817
1.916915389
1.891876704
1.918023027
1.943252434
1.918023001
1.894143347
1.9193071
1.894143165
1.833536479
1.872028007
1.833536441
1.870236522
1.909047756
1.870236325
1.830512874
1.86921479
1.830512808
)
;

boundaryField
{
    inlet
    {
        type            calculated;
        value           nonuniform List<scalar> 9(2.217813044 2.222724303 2.217810421 2.222725628 2.228226141 2.222722997 2.217813044 2.222724303 2.217810421);
    }
    outlet
    {
        type            calculated;
        value           nonuniform 0();
    }
    walls
    {
        type            calculated;
        value           uniform 0;
    }
    procBoundary0to1
    {
        type            processor;
        value           nonuniform List<scalar> 9(1.585098352 1.63644283 1.585098042 1.627122372 1.679184369 1.627122209 1.569183884 1.620761157 1.569183826);
    }
}


// ************************************************************************* //
