/*--------------------------------*- C++ -*----------------------------------*\
  =========                 |
  \\      /  F ield         | OpenFOAM: The Open Source CFD Toolbox
   \\    /   O peration     | Website:  https://openfoam.org
    \\  /    A nd           | Version:  7
     \\/     M anipulation  |
\*---------------------------------------------------------------------------*/
FoamFile
{
    version     2.0;
    format      ascii;
    class       surfaceScalarField;
    location    "0.095";
    object      phi;
}
// * * * * * * * * * * * * * * * * * * * * * * * * * * * * * * * * * * * * * //

dimensions      [0 3 -1 0 0 0 0];

internalField   nonuniform List<scalar> 
54
(
3.576858755e-08
4.938965207e-08
3.061475212e-05
-3.576803036e-08
4.872932428e-08
3.075501858e-05
4.939042518e-08
3.061475116e-05
3.525106252e-08
-2.255163464e-08
3.076861198e-05
-3.524943189e-08
-2.201619939e-08
3.091028813e-05
-2.255203182e-08
3.076861196e-05
3.599787347e-08
3.064080587e-05
-3.599678792e-08
3.078161989e-05
3.064080475e-05
4.050775342e-08
2.682597132e-08
2.902943824e-05
-4.050574595e-08
2.660171226e-08
2.927374579e-05
2.682659284e-08
2.902943861e-05
4.046648293e-08
-5.479265536e-08
2.927381663e-05
-4.046411819e-08
-5.468997304e-08
2.951808706e-05
-5.479300204e-08
2.92738147e-05
4.081948815e-08
2.902681062e-05
-4.081704165e-08
2.92724173e-05
2.902680929e-05
5.148653966e-08
1.134711358e-08
-5.148549129e-08
1.177788657e-08
1.134645885e-08
5.188460754e-08
-8.934095668e-08
-5.1882709e-08
-8.932105266e-08
-8.934153116e-08
5.192219045e-08
-5.192212267e-08
)
;

boundaryField
{
    inlet
    {
        type            calculated;
        value           nonuniform List<scalar> 9(-3.102855299e-05 -3.106290004e-05 -3.102855299e-05 -3.106290004e-05 -3.11013218e-05 -3.106290004e-05 -3.102855299e-05 -3.106290004e-05 -3.102855299e-05);
    }
    outlet
    {
        type            calculated;
        value           nonuniform 0();
    }
    walls
    {
        type            calculated;
        value           uniform 0;
    }
    procBoundary0to1
    {
        type            processor;
        value           nonuniform List<scalar> 9(2.700123966e-05 2.73657441e-05 2.700123603e-05 2.732509514e-05 2.76893746e-05 2.732509485e-05 2.692344789e-05 2.729087205e-05 2.692344821e-05);
    }
}


// ************************************************************************* //
