/*--------------------------------*- C++ -*----------------------------------*\
  =========                 |
  \\      /  F ield         | OpenFOAM: The Open Source CFD Toolbox
   \\    /   O peration     | Website:  https://openfoam.org
    \\  /    A nd           | Version:  7
     \\/     M anipulation  |
\*---------------------------------------------------------------------------*/
FoamFile
{
    version     2.0;
    format      ascii;
    class       surfaceScalarField;
    location    "0.095";
    object      rhoPhi;
}
// * * * * * * * * * * * * * * * * * * * * * * * * * * * * * * * * * * * * * //

dimensions      [1 0 -1 0 0 0 0];

internalField   nonuniform List<scalar> 
54
(
4.190268798e-08
5.785966718e-08
3.575322967e-05
-4.190203523e-08
5.708532827e-08
3.591673301e-05
5.786057287e-08
3.575322854e-05
4.129582983e-08
-2.641908288e-08
3.593263537e-05
-4.129391959e-08
-2.579147674e-08
3.609767992e-05
-2.641954817e-08
3.593263534e-05
4.217124574e-08
3.578370778e-05
-4.216997402e-08
3.594785195e-05
3.578370647e-05
4.715841211e-08
3.123035594e-08
3.370571482e-05
-4.715607505e-08
3.09690799e-08
3.398974674e-05
3.12310795e-08
3.370571526e-05
4.711016587e-08
-6.378884041e-08
3.398990102e-05
-4.71074129e-08
-6.366889591e-08
3.427371604e-05
-6.3789244e-08
3.398989877e-05
4.752152298e-08
3.370279147e-05
-4.751867478e-08
3.398833953e-05
3.370278991e-05
5.962167289e-08
1.314002867e-08
-5.962045887e-08
1.363917914e-08
1.313927049e-08
6.008414147e-08
-1.034575694e-07
-6.008194289e-08
-1.034369078e-07
-1.034582346e-07
6.012637906e-08
-6.012630055e-08
)
;

boundaryField
{
    inlet
    {
        type            calculated;
        value           nonuniform List<scalar> 9(-3.659597872e-05 -3.663646435e-05 -3.659593544e-05 -3.663648619e-05 -3.668177764e-05 -3.663644282e-05 -3.659597872e-05 -3.663646435e-05 -3.659593544e-05);
    }
    outlet
    {
        type            calculated;
        value           nonuniform 0();
    }
    walls
    {
        type            calculated;
        value           uniform 0;
    }
    procBoundary0to1
    {
        type            processor;
        value           nonuniform List<scalar> 9(3.120065551e-05 3.162344695e-05 3.120065133e-05 3.157643844e-05 3.199878235e-05 3.157643811e-05 3.111068138e-05 3.153686287e-05 3.111068176e-05);
    }
}


// ************************************************************************* //
