/*--------------------------------*- C++ -*----------------------------------*\
  =========                 |
  \\      /  F ield         | OpenFOAM: The Open Source CFD Toolbox
   \\    /   O peration     | Website:  https://openfoam.org
    \\  /    A nd           | Version:  7
     \\/     M anipulation  |
\*---------------------------------------------------------------------------*/
FoamFile
{
    version     2.0;
    format      ascii;
    class       volScalarField::Internal;
    location    "0.095";
    object      steelCloud:UCoeff;
}
// * * * * * * * * * * * * * * * * * * * * * * * * * * * * * * * * * * * * * //

dimensions      [1 0 0 0 0 0 0];

value           nonuniform List<scalar> 
27
(
3.490454611e-08
3.497147506e-08
3.490454611e-08
3.497147506e-08
3.504616884e-08
3.497147506e-08
3.490454611e-08
3.497147506e-08
3.490454611e-08
3.238866444e-08
3.245797035e-08
3.238866444e-08
3.245797035e-08
3.25379634e-08
3.245797035e-08
3.238866444e-08
3.245797035e-08
3.238866444e-08
2.769090951e-08
2.773841926e-08
2.769090951e-08
2.773841926e-08
2.779176553e-08
2.773841926e-08
2.769090951e-08
2.773841926e-08
2.769090951e-08
)
;


// ************************************************************************* //
