/*--------------------------------*- C++ -*----------------------------------*\
  =========                 |
  \\      /  F ield         | OpenFOAM: The Open Source CFD Toolbox
   \\    /   O peration     | Website:  https://openfoam.org
    \\  /    A nd           | Version:  7
     \\/     M anipulation  |
\*---------------------------------------------------------------------------*/
FoamFile
{
    version     2.0;
    format      ascii;
    class       volScalarField;
    location    "0.095";
    object      Tavg;
}
// * * * * * * * * * * * * * * * * * * * * * * * * * * * * * * * * * * * * * //

dimensions      [0 0 0 1 0 0 0];

internalField   nonuniform List<scalar> 
27
(
302.868883
302.8688823
302.868883
302.8688999
302.8688993
302.8688999
302.8689182
302.8689175
302.8689182
303.1223866
303.1223839
303.1223866
303.1224157
303.1224129
303.1224157
303.1224501
303.1224473
303.1224501
303.5515819
303.551575
303.5515819
303.5516376
303.5516307
303.5516375
303.5517068
303.5516998
303.5517068
)
;

boundaryField
{
    inlet
    {
        type            fixedValue;
        value           uniform 298;
    }
    outlet
    {
        type            zeroGradient;
    }
    walls
    {
        type            zeroGradient;
    }
    procBoundary0to1
    {
        type            processor;
        value           nonuniform List<scalar> 9(304.034232 304.0342192 304.0342319 304.0343287 304.034316 304.0343286 304.0344501 304.0344373 304.0344501);
    }
}


// ************************************************************************* //
