/*--------------------------------*- C++ -*----------------------------------*\
  =========                 |
  \\      /  F ield         | OpenFOAM: The Open Source CFD Toolbox
   \\    /   O peration     | Website:  https://openfoam.org
    \\  /    A nd           | Version:  7
     \\/     M anipulation  |
\*---------------------------------------------------------------------------*/
FoamFile
{
    version     2.0;
    format      ascii;
    class       volVectorField;
    location    "0.095";
    object      U;
}
// * * * * * * * * * * * * * * * * * * * * * * * * * * * * * * * * * * * * * //

dimensions      [0 1 -1 0 0 0 0];

internalField   nonuniform List<vector> 
27
(
(1.712985821 0.001660495186 -0.007629343858)
(1.720034847 2.117943121e-08 -0.007673814471)
(1.7129858 -0.001660502212 -0.007629310344)
(1.720428106 0.001637225765 0.003479873534)
(1.727641512 5.602291936e-08 0.003500964073)
(1.720428092 -0.001637199212 0.003479885722)
(1.713740096 0.001654526463 -0.0111319802)
(1.720806543 3.823558449e-08 -0.01113655345)
(1.713740066 -0.001654516894 -0.01113200113)
(1.802759786 0.002979128947 -0.01507761637)
(1.814657683 9.124580683e-08 -0.01513310717)
(1.802759731 -0.002979090509 -0.01507761141)
(1.81522207 0.002957763806 0.00824028393)
(1.827132701 9.657321186e-08 0.008301157388)
(1.815222056 -0.002957719937 0.008240285067)
(1.80377214 0.002950519193 -0.02139796648)
(1.815722422 1.065182635e-07 -0.02144108253)
(1.803772052 -0.00295046454 -0.02139796359)
(1.779381363 0.004184938584 -0.02278432937)
(1.79794698 5.264942005e-08 -0.02282949419)
(1.779381341 -0.004184952792 -0.02278429397)
(1.797175413 0.004174975577 0.01332814133)
(1.815715617 9.884478933e-08 0.01346190507)
(1.797175316 -0.004174944105 0.01332809745)
(1.777773604 0.004116652742 -0.03173852007)
(1.796455368 2.230330175e-08 -0.03183622947)
(1.777773567 -0.004116697377 -0.03173860048)
)
;

boundaryField
{
    inlet
    {
        type            interstitialInletVelocity;
        inletVelocity   uniform (1.23 0 0);
        value           nonuniform List<vector> 9((1.939284562 0 0) (1.941431252 0 0) (1.939284562 0 0) (1.941431252 0 0) (1.943832612 0 0) (1.941431252 0 0) (1.939284562 0 0) (1.941431252 0 0) (1.939284562 0 0));
    }
    outlet
    {
        type            pressureInletOutletVelocity;
        phi             alphaRhoPhi;
        value           nonuniform 0();
    }
    walls
    {
        type            noSlip;
    }
    procBoundary0to1
    {
        type            processor;
        value           nonuniform List<vector> 9((1.657800202 0.005069373851 -0.03189874839) (1.68439165 1.01723405e-07 -0.03192328855) (1.657800028 -0.005069339768 -0.0318988179) (1.679800006 0.005052495128 0.01700002376) (1.706414537 4.106097324e-08 0.0172560516) (1.679799913 -0.00505252288 0.01699998359) (1.64921628 0.004939316382 -0.04276760476) (1.676061212 8.23296455e-08 -0.04289533861) (1.64921624 -0.004939302092 -0.04276757474));
    }
}


// ************************************************************************* //
