/*--------------------------------*- C++ -*----------------------------------*\
  =========                 |
  \\      /  F ield         | OpenFOAM: The Open Source CFD Toolbox
   \\    /   O peration     | Website:  https://openfoam.org
    \\  /    A nd           | Version:  7
     \\/     M anipulation  |
\*---------------------------------------------------------------------------*/
FoamFile
{
    version     2.0;
    format      ascii;
    class       volVectorField;
    location    "0.095";
    object      Uavg;
}
// * * * * * * * * * * * * * * * * * * * * * * * * * * * * * * * * * * * * * //

dimensions      [0 1 -1 0 0 0 0];

internalField   nonuniform List<vector> 
27
(
(1.247451631 5.110658097e-05 -0.01021395283)
(1.247455785 1.906613884e-08 -0.01021395747)
(1.24745163 -5.106848749e-05 -0.01021395267)
(1.247418547 5.107278804e-05 -0.01026045597)
(1.247422705 1.918503925e-08 -0.01026045777)
(1.247418546 -5.103445814e-05 -0.01026045587)
(1.247377148 5.104243522e-05 -0.01032382921)
(1.247381307 1.928825336e-08 -0.01032383058)
(1.247377148 -5.100389933e-05 -0.01032382917)
(1.219732296 5.368177276e-05 -0.01124714013)
(1.219736777 1.840886886e-08 -0.01124713959)
(1.219732296 -5.364499001e-05 -0.01124713998)
(1.219670291 5.363088705e-05 -0.01129610676)
(1.219674777 1.85317356e-08 -0.01129610409)
(1.21967029 -5.35938598e-05 -0.01129610667)
(1.219599364 5.358167454e-05 -0.01136333442)
(1.219603852 1.86388626e-08 -0.01136333239)
(1.219599363 -5.354443332e-05 -0.01136333439)
(1.182779901 5.997185994e-05 -0.01320708728)
(1.182785536 1.732665699e-08 -0.01320707233)
(1.1827799 -5.993722905e-05 -0.01320708713)
(1.182655951 5.98793261e-05 -0.01326174969)
(1.182661596 1.746453383e-08 -0.01326173387)
(1.18265595 -5.984442077e-05 -0.01326174959)
(1.18252092 5.978493202e-05 -0.01333843247)
(1.182526573 1.758712412e-08 -0.01333841958)
(1.182520919 -5.974978172e-05 -0.01333843243)
)
;

boundaryField
{
    inlet
    {
        type            interstitialInletVelocity;
        inletVelocity   uniform (1.23 0 0);
        value           uniform (1.23 0 0);
    }
    outlet
    {
        type            pressureInletOutletVelocity;
        phi             alphaRhoPhi;
        value           nonuniform 0();
    }
    walls
    {
        type            noSlip;
    }
    procBoundary0to1
    {
        type            processor;
        value           nonuniform List<vector> 9((1.159990882 7.173729444e-05 -0.01577036803) (1.159999984 1.628312654e-08 -0.01577032476) (1.15999088 -7.170473628e-05 -0.01577036788) (1.159774015 7.15699124e-05 -0.01583305763) (1.159783139 1.644793783e-08 -0.01583301366) (1.159774013 -7.153702613e-05 -0.01583305752) (1.159539445 7.139451452e-05 -0.01592942987) (1.159548592 1.660289821e-08 -0.01592939487) (1.159539443 -7.136131957e-05 -0.01592942981));
    }
}


// ************************************************************************* //
