/*--------------------------------*- C++ -*----------------------------------*\
  =========                 |
  \\      /  F ield         | OpenFOAM: The Open Source CFD Toolbox
   \\    /   O peration     | Website:  https://openfoam.org
    \\  /    A nd           | Version:  7
     \\/     M anipulation  |
\*---------------------------------------------------------------------------*/
FoamFile
{
    version     2.0;
    format      ascii;
    class       surfaceScalarField;
    location    "0.07";
    object      alphaRhoPhi;
}
// * * * * * * * * * * * * * * * * * * * * * * * * * * * * * * * * * * * * * //

dimensions      [1 0 -1 0 0 0 0];

internalField   nonuniform List<scalar> 
117
(
2.654733986e-08
3.665841334e-08
2.314794249e-05
-2.654671263e-08
3.612437791e-08
2.322811988e-05
3.665892924e-08
2.314794206e-05
2.613119102e-08
-1.673589018e-08
2.32383998e-05
-2.612989337e-08
-1.631838402e-08
2.331583438e-05
-1.67361546e-08
2.323839992e-05
2.671743095e-08
2.316766739e-05
-2.671645383e-08
2.324823682e-05
2.316766681e-05
3.112036408e-08
2.060017477e-08
2.309619988e-05
-3.111835832e-08
2.040266594e-08
2.326993177e-05
2.060058074e-08
2.309620099e-05
3.105111431e-08
-4.210653022e-08
2.327003159e-05
-3.104894189e-08
-4.19775556e-08
2.344029292e-05
-4.210679532e-08
2.327003065e-05
3.135974734e-08
2.309417968e-05
-3.135748639e-08
2.326894904e-05
2.309417938e-05
4.228158529e-08
9.299918026e-09
2.304462392e-05
-4.227998297e-08
9.645355272e-09
2.334485343e-05
9.299377875e-09
2.304462258e-05
4.257746186e-08
-7.339091779e-08
2.33101512e-05
-4.25752021e-08
-7.332258105e-08
2.36084088e-05
-7.339140262e-08
2.331015229e-05
4.263880003e-08
2.29781514e-05
-4.263800047e-08
2.328090941e-05
2.297815315e-05
4.95011908e-08
-3.075742153e-08
2.302597266e-05
-4.949995549e-08
-2.965176448e-08
2.347358908e-05
-3.075724073e-08
2.302597356e-05
4.98674146e-08
-1.230703423e-07
2.335267978e-05
-4.986603488e-08
-1.224437563e-07
2.380102353e-05
-1.230707881e-07
2.335268033e-05
5.002454357e-08
2.280515069e-05
-5.002295253e-08
2.325859367e-05
2.280515009e-05
4.71985773e-08
-1.315989886e-07
2.311058434e-05
-4.720204117e-08
-1.288498985e-07
2.369704971e-05
-1.31597603e-07
2.311058018e-05
4.754439919e-08
-2.183285694e-07
2.339207459e-05
-4.754262275e-08
-2.161924039e-07
2.398365565e-05
-2.183287247e-07
2.339207703e-05
4.762117373e-08
2.253941054e-05
-4.76223375e-08
2.313785202e-05
2.253940923e-05
3.294514965e-08
-3.678335002e-07
-3.294874156e-08
-3.612265263e-07
-3.678338746e-07
3.266186829e-08
-4.357800615e-07
-3.266216226e-08
-4.296351761e-07
-4.357808307e-07
3.207854638e-08
-3.208150545e-08
)
;

boundaryField
{
    inlet
    {
        type            calculated;
        value           nonuniform List<scalar> 9(-2.321116629e-05 -2.321115091e-05 -2.321113883e-05 -2.321116474e-05 -2.321114938e-05 -2.321113727e-05 -2.321116629e-05 -2.32111509e-05 -2.321113883e-05);
    }
    outlet
    {
        type            calculated;
        value           nonuniform List<scalar> 9(2.344572829e-05 2.342761693e-05 2.207179539e-05 2.412443391e-05 2.411765436e-05 2.277262936e-05 2.344572144e-05 2.342761932e-05 2.207178927e-05);
    }
    walls
    {
        type            calculated;
        value           uniform 0;
    }
}


// ************************************************************************* //
