/*--------------------------------*- C++ -*----------------------------------*\
  =========                 |
  \\      /  F ield         | OpenFOAM: The Open Source CFD Toolbox
   \\    /   O peration     | Website:  https://openfoam.org
    \\  /    A nd           | Version:  7
     \\/     M anipulation  |
\*---------------------------------------------------------------------------*/
FoamFile
{
    version     2.0;
    format      ascii;
    class       surfaceScalarField;
    location    "0.07";
    object      rhoPhi;
}
// * * * * * * * * * * * * * * * * * * * * * * * * * * * * * * * * * * * * * //

dimensions      [1 0 -1 0 0 0 0];

internalField   nonuniform List<scalar> 
117
(
4.187912606e-08
5.782961011e-08
3.575326372e-05
-4.187813658e-08
5.705393761e-08
3.591669842e-05
5.783042395e-08
3.575326306e-05
4.127094854e-08
-2.640130643e-08
3.593259385e-05
-4.126889907e-08
-2.577284696e-08
3.609756341e-05
-2.640172356e-08
3.593259403e-05
4.214744923e-08
3.578372992e-05
-4.214590779e-08
3.594780443e-05
3.578372901e-05
4.713393115e-08
3.12003811e-08
3.37057802e-05
-4.713089328e-08
3.093789289e-08
3.398967681e-05
3.120099597e-08
3.370578183e-05
4.708482956e-08
-6.377323515e-08
3.398982262e-05
-4.708153539e-08
-6.365330504e-08
3.427349133e-05
-6.377363666e-08
3.398982123e-05
4.749649356e-08
3.3702832e-05
-4.749306919e-08
3.398824136e-05
3.370283156e-05
5.958565824e-08
1.310598298e-08
3.120081267e-05
-5.958340016e-08
1.360292273e-08
3.162337433e-05
1.310522177e-08
3.120081085e-05
6.004733962e-08
-1.034267309e-07
3.157636603e-05
-6.004415266e-08
-1.034074304e-07
3.19984656e-05
-1.034274142e-07
3.157636751e-05
6.008906594e-08
3.111081352e-05
-6.008793915e-08
3.153675456e-05
3.111081589e-05
6.452085053e-08
-4.008984361e-08
2.908877106e-05
-6.451924041e-08
-3.866200876e-08
2.966100305e-05
-4.008960794e-08
2.90887722e-05
6.502056299e-08
-1.604123666e-07
2.950822322e-05
-6.501876402e-08
-1.596505861e-07
3.008214009e-05
-1.604129476e-07
2.950822391e-05
6.520299909e-08
2.880980609e-05
-6.52009253e-08
2.93893369e-05
2.880980533e-05
5.785845799e-08
-1.613208488e-07
2.786523341e-05
-5.786270418e-08
-1.579723484e-07
2.857506265e-05
-1.613191503e-07
2.78652284e-05
5.829030899e-08
-2.676384561e-07
2.820730872e-05
-5.828813104e-08
-2.650558686e-07
2.892354962e-05
-2.676386465e-07
2.820731165e-05
5.837649855e-08
2.717654934e-05
-5.837792517e-08
2.79007547e-05
2.717654776e-05
3.908539624e-08
-4.363895219e-07
-3.90896576e-08
-4.285767588e-07
-4.363899661e-07
3.875163263e-08
-5.169998181e-07
-3.875198142e-08
-5.097401154e-07
-5.170007307e-07
3.80572773e-08
-3.806078788e-08
)
;

boundaryField
{
    inlet
    {
        type            calculated;
        value           nonuniform List<scalar> 9(-3.659598086e-05 -3.663646648e-05 -3.659593757e-05 -3.663648832e-05 -3.668177978e-05 -3.663644495e-05 -3.659598086e-05 -3.663646648e-05 -3.659593757e-05);
    }
    outlet
    {
        type            calculated;
        value           nonuniform List<scalar> 9(2.781467744e-05 2.779482112e-05 2.618472166e-05 2.86215336e-05 2.861523129e-05 2.701773557e-05 2.781466931e-05 2.779482395e-05 2.618471439e-05);
    }
    walls
    {
        type            calculated;
        value           uniform 0;
    }
}


// ************************************************************************* //
