/*--------------------------------*- C++ -*----------------------------------*\
  =========                 |
  \\      /  F ield         | OpenFOAM: The Open Source CFD Toolbox
   \\    /   O peration     | Website:  https://openfoam.org
    \\  /    A nd           | Version:  7
     \\/     M anipulation  |
\*---------------------------------------------------------------------------*/
FoamFile
{
    version     2.0;
    format      ascii;
    class       volScalarField::Internal;
    location    "0.07";
    object      steelCloud:hsCoeff;
}
// * * * * * * * * * * * * * * * * * * * * * * * * * * * * * * * * * * * * * //

dimensions      [1 2 -2 -1 0 0 0];

value           nonuniform List<scalar> 
54
(
6.813288224e-06
6.826352603e-06
6.813288224e-06
6.826352603e-06
6.840932661e-06
6.826352603e-06
6.813288224e-06
6.826352603e-06
6.813288224e-06
6.32219383e-06
6.335722187e-06
6.32219383e-06
6.335722187e-06
6.351336648e-06
6.335722187e-06
6.32219383e-06
6.335722187e-06
6.32219383e-06
5.405202723e-06
5.414476519e-06
5.405202723e-06
5.414476519e-06
5.42488959e-06
5.414476519e-06
5.405202723e-06
5.414476519e-06
5.405202723e-06
4.334128851e-06
4.33884027e-06
4.334128851e-06
4.33884027e-06
4.343962587e-06
4.33884027e-06
4.334128851e-06
4.33884027e-06
4.334128851e-06
3.431122959e-06
3.433129991e-06
3.431122959e-06
3.433129991e-06
3.43525489e-06
3.433129991e-06
3.431122959e-06
3.433129991e-06
3.431122959e-06
2.926043351e-06
2.926964186e-06
2.926043351e-06
2.926964186e-06
2.927919516e-06
2.926964186e-06
2.926043351e-06
2.926964186e-06
2.926043351e-06
)
;


// ************************************************************************* //
