/*--------------------------------*- C++ -*----------------------------------*\
  =========                 |
  \\      /  F ield         | OpenFOAM: The Open Source CFD Toolbox
   \\    /   O peration     | Website:  https://openfoam.org
    \\  /    A nd           | Version:  7
     \\/     M anipulation  |
\*---------------------------------------------------------------------------*/
FoamFile
{
    version     2.0;
    format      ascii;
    class       volVectorField::Internal;
    location    "0.07";
    object      steelCloud:UTrans;
}
// * * * * * * * * * * * * * * * * * * * * * * * * * * * * * * * * * * * * * //

dimensions      [1 1 -1 0 0 0 0];

value           nonuniform List<vector> 
54
(
(-6.369777469e-08 -2.079836845e-15 -2.921474592e-10)
(-6.381991423e-08 -2.083824902e-15 -2.927076476e-10)
(-6.369777469e-08 -2.079836845e-15 -2.921474592e-10)
(-6.381991423e-08 -2.083824902e-15 -2.927076476e-10)
(-6.395622393e-08 -2.088275637e-15 -2.933328269e-10)
(-6.381991423e-08 -2.083824902e-15 -2.927076476e-10)
(-6.369777469e-08 -2.079836845e-15 -2.921474592e-10)
(-6.381991423e-08 -2.083824902e-15 -2.927076476e-10)
(-6.369777469e-08 -2.079836845e-15 -2.921474592e-10)
(-5.910650847e-08 -1.929924471e-15 -2.710897885e-10)
(-5.923298576e-08 -1.934054162e-15 -2.716698719e-10)
(-5.910650847e-08 -1.929924471e-15 -2.710897885e-10)
(-5.923298576e-08 -1.934054162e-15 -2.716698719e-10)
(-5.937896615e-08 -1.938820661e-15 -2.723394054e-10)
(-5.923298576e-08 -1.934054162e-15 -2.716698719e-10)
(-5.910650847e-08 -1.929924471e-15 -2.710897885e-10)
(-5.923298576e-08 -1.934054162e-15 -2.716698719e-10)
(-5.910650847e-08 -1.929924471e-15 -2.710897885e-10)
(-5.053351244e-08 -1.650002086e-15 -2.317700631e-10)
(-5.062021362e-08 -1.652833022e-15 -2.321677149e-10)
(-5.053351244e-08 -1.650002086e-15 -2.317700631e-10)
(-5.062021362e-08 -1.652833022e-15 -2.321677149e-10)
(-5.071756595e-08 -1.656011735e-15 -2.326142177e-10)
(-5.062021362e-08 -1.652833022e-15 -2.321677149e-10)
(-5.053351244e-08 -1.650002086e-15 -2.317700631e-10)
(-5.062021362e-08 -1.652833022e-15 -2.321677149e-10)
(-5.053351244e-08 -1.650002086e-15 -2.317700631e-10)
(-4.051998888e-08 -1.323044113e-15 -1.858434122e-10)
(-4.056403617e-08 -1.32448233e-15 -1.860454334e-10)
(-4.051998888e-08 -1.323044113e-15 -1.858434122e-10)
(-4.056403617e-08 -1.32448233e-15 -1.860454334e-10)
(-4.061192497e-08 -1.326045978e-15 -1.862650736e-10)
(-4.056403617e-08 -1.32448233e-15 -1.860454334e-10)
(-4.051998888e-08 -1.323044113e-15 -1.858434122e-10)
(-4.056403617e-08 -1.32448233e-15 -1.860454334e-10)
(-4.051998888e-08 -1.323044113e-15 -1.858434122e-10)
(-3.207774132e-08 -1.04739088e-15 -1.471233598e-10)
(-3.209650516e-08 -1.04800355e-15 -1.472094194e-10)
(-3.207774132e-08 -1.04739088e-15 -1.471233598e-10)
(-3.209650516e-08 -1.04800355e-15 -1.472094194e-10)
(-3.211637095e-08 -1.048652201e-15 -1.473005331e-10)
(-3.209650516e-08 -1.048003551e-15 -1.472094194e-10)
(-3.207774132e-08 -1.04739088e-15 -1.471233598e-10)
(-3.209650516e-08 -1.048003551e-15 -1.472094194e-10)
(-3.207774132e-08 -1.04739088e-15 -1.471233598e-10)
(-2.735572663e-08 -8.932093538e-16 -1.254660161e-10)
(-2.736433557e-08 -8.934904497e-16 -1.255055007e-10)
(-2.735572663e-08 -8.932093538e-16 -1.254660161e-10)
(-2.736433557e-08 -8.934904497e-16 -1.255055007e-10)
(-2.737326699e-08 -8.937820756e-16 -1.255464644e-10)
(-2.736433557e-08 -8.934904498e-16 -1.255055007e-10)
(-2.735572663e-08 -8.932093538e-16 -1.254660161e-10)
(-2.736433557e-08 -8.934904498e-16 -1.255055007e-10)
(-2.735572663e-08 -8.932093538e-16 -1.254660161e-10)
)
;


// ************************************************************************* //
