/*--------------------------------*- C++ -*----------------------------------*\
  =========                 |
  \\      /  F ield         | OpenFOAM: The Open Source CFD Toolbox
   \\    /   O peration     | Website:  https://openfoam.org
    \\  /    A nd           | Version:  7
     \\/     M anipulation  |
\*---------------------------------------------------------------------------*/
FoamFile
{
    version     2.0;
    format      ascii;
    class       volScalarField::Internal;
    location    "0.07";
    object      steelCloud:UCoeff;
}
// * * * * * * * * * * * * * * * * * * * * * * * * * * * * * * * * * * * * * //

dimensions      [1 0 0 0 0 0 0];

value           nonuniform List<scalar> 
54
(
3.492479987e-08
3.499176766e-08
3.492479987e-08
3.499176766e-08
3.506650479e-08
3.499176766e-08
3.492479987e-08
3.499176766e-08
3.492479987e-08
3.240745834e-08
3.247680447e-08
3.240745834e-08
3.247680447e-08
3.255684393e-08
3.247680447e-08
3.240745834e-08
3.247680447e-08
3.240745834e-08
2.770697748e-08
2.77545148e-08
2.770697748e-08
2.77545148e-08
2.780789203e-08
2.77545148e-08
2.770697748e-08
2.77545148e-08
2.770697748e-08
2.221667098e-08
2.224082163e-08
2.221667098e-08
2.224082163e-08
2.226707854e-08
2.224082163e-08
2.221667098e-08
2.224082163e-08
2.221667098e-08
1.758787809e-08
1.75981661e-08
1.758787809e-08
1.75981661e-08
1.76090583e-08
1.75981661e-08
1.758787809e-08
1.75981661e-08
1.758787809e-08
1.499884859e-08
1.500356877e-08
1.499884859e-08
1.500356877e-08
1.500846578e-08
1.500356877e-08
1.499884859e-08
1.500356877e-08
1.499884859e-08
)
;


// ************************************************************************* //
