/*--------------------------------*- C++ -*----------------------------------*\
  =========                 |
  \\      /  F ield         | OpenFOAM: The Open Source CFD Toolbox
   \\    /   O peration     | Website:  https://openfoam.org
    \\  /    A nd           | Version:  7
     \\/     M anipulation  |
\*---------------------------------------------------------------------------*/
FoamFile
{
    version     2.0;
    format      ascii;
    class       volScalarField::Internal;
    location    "0.07";
    object      steelCloud:hsTrans;
}
// * * * * * * * * * * * * * * * * * * * * * * * * * * * * * * * * * * * * * //

dimensions      [1 2 -2 0 0 0 0];

value           nonuniform List<scalar> 
54
(
0.0002374894746
0.0002379448572
0.0002374894746
0.0002379448572
0.0002384530715
0.0002379448572
0.0002374894746
0.0002379448572
0.0002374894746
0.000220371492
0.0002208430473
0.000220371492
0.0002208430473
0.0002213873176
0.0002208430473
0.000220371492
0.0002208430473
0.000220371492
0.0001884081097
0.0001887313646
0.0001884081097
0.0001887313646
0.000189094331
0.0001887313646
0.0001884081097
0.0001887313646
0.0001884081097
0.0001510738942
0.0001512381192
0.0001510738942
0.0001512381192
0.0001514166668
0.0001512381192
0.0001510738942
0.0001512381192
0.0001510738942
0.0001195979918
0.0001196679505
0.0001195979918
0.0001196679505
0.0001197420177
0.0001196679505
0.0001195979918
0.0001196679505
0.0001195979918
0.0001019925292
0.0001020246266
0.0001019925292
0.0001020246266
0.0001020579264
0.0001020246266
0.0001019925292
0.0001020246266
0.0001019925292
)
;


// ************************************************************************* //
