/*--------------------------------*- C++ -*----------------------------------*\
  =========                 |
  \\      /  F ield         | OpenFOAM: The Open Source CFD Toolbox
   \\    /   O peration     | Website:  https://openfoam.org
    \\  /    A nd           | Version:  7
     \\/     M anipulation  |
\*---------------------------------------------------------------------------*/
FoamFile
{
    version     2.0;
    format      ascii;
    class       volVectorField;
    location    "0.07";
    object      Uavg;
}
// * * * * * * * * * * * * * * * * * * * * * * * * * * * * * * * * * * * * * //

dimensions      [0 1 -1 0 0 0 0];

internalField   nonuniform List<vector> 
54
(
(1.24738189 5.108610422e-05 -0.01021202209)
(1.247386042 5.321009479e-08 -0.01021202682)
(1.247381889 -5.097964852e-05 -0.01021202201)
(1.247348793 5.105235039e-05 -0.01025847358)
(1.247352949 5.333972383e-08 -0.01025847547)
(1.247348792 -5.094563621e-05 -0.01025847357)
(1.247307386 5.10220577e-05 -0.01032179326)
(1.247311543 5.34568668e-08 -0.0103217947)
(1.247307386 -5.091510954e-05 -0.0103217933)
(1.219672044 5.36494804e-05 -0.01124480821)
(1.219676522 5.402058614e-08 -0.0112448078)
(1.219672044 -5.354135106e-05 -0.01124480812)
(1.219610021 5.359874602e-05 -0.01129371484)
(1.219614504 5.419230689e-08 -0.0112937123)
(1.219610021 -5.3490274e-05 -0.01129371484)
(1.219539081 5.354969887e-05 -0.01136087763)
(1.219543567 5.434546053e-08 -0.01136087574)
(1.219539081 -5.344092075e-05 -0.01136087771)
(1.182734726 5.991385919e-05 -0.01320400892)
(1.182740357 5.568516195e-08 -0.01320399422)
(1.182734725 -5.980224839e-05 -0.01320400878)
(1.182610748 5.982175073e-05 -0.0132585946)
(1.182616387 5.59568901e-08 -0.01325857906)
(1.182610747 -5.970959823e-05 -0.0132585946)
(1.182475696 5.97277747e-05 -0.01333518706)
(1.182481344 5.619173835e-08 -0.01333517449)
(1.182475694 -5.961515274e-05 -0.01333518721)
(1.159961366 7.163948682e-05 -0.01576633775)
(1.159970458 5.82578285e-08 -0.01576629498)
(1.159961364 -7.152241113e-05 -0.01576633751)
(1.159744451 7.147300899e-05 -0.01582892713)
(1.159753565 5.868743359e-08 -0.01582888376)
(1.159744448 -7.135507877e-05 -0.01582892714)
(1.159509849 7.129846808e-05 -0.01592516693)
(1.159518986 5.904562542e-08 -0.01592513265)
(1.159509847 -7.117982248e-05 -0.01592516719)
(1.15788315 8.538276737e-05 -0.0182554897)
(1.157896855 6.113453598e-08 -0.01825541071)
(1.157883146 -8.525955075e-05 -0.01825548939)
(1.157562768 8.512801002e-05 -0.01832649198)
(1.157576515 6.172589648e-08 -0.01832641112)
(1.157562764 -8.500361909e-05 -0.01832649204)
(1.157215835 8.485893476e-05 -0.01844665149)
(1.157229626 6.219728754e-08 -0.01844658722)
(1.157215832 -8.473360161e-05 -0.01844665193)
(1.163493092 9.420029891e-05 -0.01980765934)
(1.163509862 6.308179085e-08 -0.01980755177)
(1.163493087 -9.407291975e-05 -0.01980765902)
(1.163099573 9.388450767e-05 -0.01988431718)
(1.163116404 6.376245875e-08 -0.01988420598)
(1.163099568 -9.375577666e-05 -0.01988431731)
(1.162673619 9.355100922e-05 -0.02001984951)
(1.16269051 6.429385803e-08 -0.0200197597)
(1.162673614 -9.342121486e-05 -0.02001985011)
)
;

boundaryField
{
    inlet
    {
        type            interstitialInletVelocity;
        inletVelocity   uniform (1.23 0 0);
        value           uniform (1.23 0 0);
    }
    outlet
    {
        type            pressureInletOutletVelocity;
        phi             alphaRhoPhi;
        value           nonuniform List<vector> 9((1.505458852 0.005090001448 -0.06012595329) (1.511428849 0.00497166177 0.006224665424) (1.433582276 0.004703630826 -0.07173399054) (1.548465081 -1.159219301e-06 -0.05998484092) (1.555109597 -8.509431236e-07 0.007088630256) (1.477903464 -1.096448518e-06 -0.07173279475) (1.505457836 -0.005088795605 -0.06012579698) (1.511429109 -0.004970144101 0.006224659633) (1.433581487 -0.004702334066 -0.07173430007));
    }
    walls
    {
        type            noSlip;
    }
}


// ************************************************************************* //
