/*--------------------------------*- C++ -*----------------------------------*\
  =========                 |
  \\      /  F ield         | OpenFOAM: The Open Source CFD Toolbox
   \\    /   O peration     | Website:  https://openfoam.org
    \\  /    A nd           | Version:  7
     \\/     M anipulation  |
\*---------------------------------------------------------------------------*/
FoamFile
{
    version     2.0;
    format      ascii;
    class       surfaceScalarField;
    location    "0.095";
    object      alphaRhoPhi;
}
// * * * * * * * * * * * * * * * * * * * * * * * * * * * * * * * * * * * * * //

dimensions      [1 0 -1 0 0 0 0];

internalField   nonuniform List<scalar> 
54
(
4.954446697e-08
-3.071837901e-08
2.302566246e-05
-4.954297352e-08
-2.960933275e-08
2.347357761e-05
-3.071850583e-08
2.302566237e-05
4.991025776e-08
-1.231035661e-07
2.335265402e-05
-4.990968924e-08
-1.224731315e-07
2.380131041e-05
-1.23103878e-07
2.335265187e-05
5.006925696e-08
2.2804864e-05
-5.006772804e-08
2.325862532e-05
2.280486183e-05
4.725747177e-08
-1.315458703e-07
2.310992769e-05
-4.725877886e-08
-1.287869019e-07
2.369686003e-05
-1.315449729e-07
2.310992533e-05
4.76021384e-08
-2.183587447e-07
2.339184404e-05
-4.760051482e-08
-2.162110459e-07
2.39839129e-05
-2.183583676e-07
2.339184256e-05
4.768085237e-08
2.253880107e-05
-4.768039584e-08
2.313775328e-05
2.253880035e-05
3.300835228e-08
-3.677664832e-07
-3.300766628e-08
-3.611292342e-07
-3.677673107e-07
3.271904996e-08
-4.35804908e-07
-3.271889531e-08
-4.296246177e-07
-4.358050637e-07
3.213275994e-08
-3.213248255e-08
)
;

boundaryField
{
    inlet
    {
        type            calculated;
        value           nonuniform 0();
    }
    outlet
    {
        type            calculated;
        value           nonuniform List<scalar> 9(2.344466503e-05 2.342714219e-05 2.207084347e-05 2.4123984e-05 2.411782562e-05 2.277237251e-05 2.34446649e-05 2.342714006e-05 2.207084182e-05);
    }
    walls
    {
        type            calculated;
        value           uniform 0;
    }
    procBoundary1to0
    {
        type            processor;
        value           nonuniform List<scalar> 9(-2.304450784e-05 -2.334490704e-05 -2.304450476e-05 -2.331020465e-05 -2.360864249e-05 -2.331020441e-05 -2.29780538e-05 -2.328098937e-05 -2.297805409e-05);
    }
}


// ************************************************************************* //
