/*--------------------------------*- C++ -*----------------------------------*\
  =========                 |
  \\      /  F ield         | OpenFOAM: The Open Source CFD Toolbox
   \\    /   O peration     | Website:  https://openfoam.org
    \\  /    A nd           | Version:  7
     \\/     M anipulation  |
\*---------------------------------------------------------------------------*/
FoamFile
{
    version     2.0;
    format      ascii;
    class       volScalarField;
    location    "0.095";
    object      cpavg;
}
// * * * * * * * * * * * * * * * * * * * * * * * * * * * * * * * * * * * * * //

dimensions      [0 2 -2 -1 0 0 0];

internalField   nonuniform List<scalar> 
27
(
1011.69323
1011.69323
1011.69323
1011.693236
1011.693236
1011.693236
1011.693244
1011.693243
1011.693244
1011.717838
1011.717837
1011.717838
1011.717847
1011.717846
1011.717847
1011.717858
1011.717857
1011.717858
1011.731876
1011.731875
1011.731876
1011.731887
1011.731886
1011.731887
1011.731901
1011.731899
1011.731901
)
;

boundaryField
{
    inlet
    {
        type            calculated;
        value           nonuniform 0();
    }
    outlet
    {
        type            calculated;
        value           nonuniform List<scalar> 9(1011.854776 1011.852187 1011.856946 1011.850971 1011.848556 1011.852987 1011.854775 1011.852187 1011.856946);
    }
    walls
    {
        type            calculated;
        value           nonuniform List<scalar> 
36
(
1011.738454
1011.801201
1011.854776
1011.737062
1011.798669
1011.850971
1011.738454
1011.801201
1011.854775
1011.738599
1011.801972
1011.856946
1011.737187
1011.799381
1011.852987
1011.738598
1011.801972
1011.856946
1011.738454
1011.737133
1011.738598
1011.801201
1011.799089
1011.801972
1011.854775
1011.852187
1011.856946
1011.738454
1011.737133
1011.738599
1011.801201
1011.799089
1011.801972
1011.854776
1011.852187
1011.856946
)
;
    }
    procBoundary1to0
    {
        type            processor;
        value           nonuniform List<scalar> 9(1011.66423 1011.66423 1011.66423 1011.664234 1011.664233 1011.664234 1011.664238 1011.664238 1011.664238);
    }
}


// ************************************************************************* //
