/*--------------------------------*- C++ -*----------------------------------*\
  =========                 |
  \\      /  F ield         | OpenFOAM: The Open Source CFD Toolbox
   \\    /   O peration     | Website:  https://openfoam.org
    \\  /    A nd           | Version:  7
     \\/     M anipulation  |
\*---------------------------------------------------------------------------*/
FoamFile
{
    version     2.0;
    format      ascii;
    class       volScalarField;
    location    "0.095";
    object      muavg;
}
// * * * * * * * * * * * * * * * * * * * * * * * * * * * * * * * * * * * * * //

dimensions      [1 -1 -1 0 0 0 0];

internalField   nonuniform List<scalar> 
27
(
1.867334826e-05
1.867334759e-05
1.867334826e-05
1.867335335e-05
1.867335268e-05
1.867335335e-05
1.867335974e-05
1.867335906e-05
1.867335974e-05
1.869494635e-05
1.869494537e-05
1.869494635e-05
1.869495389e-05
1.869495291e-05
1.869495389e-05
1.869496334e-05
1.869496235e-05
1.869496334e-05
1.870725144e-05
1.870725023e-05
1.870725143e-05
1.870726071e-05
1.87072595e-05
1.870726071e-05
1.87072723e-05
1.870727108e-05
1.87072723e-05
)
;

boundaryField
{
    inlet
    {
        type            calculated;
        value           nonuniform 0();
    }
    outlet
    {
        type            calculated;
        value           nonuniform List<scalar> 9(1.881390285e-05 1.881170648e-05 1.881574384e-05 1.881067449e-05 1.88086231e-05 1.881238538e-05 1.881390274e-05 1.881170637e-05 1.881574372e-05);
    }
    walls
    {
        type            calculated;
        value           nonuniform List<scalar> 
36
(
1.87141716e-05
1.876823184e-05
1.881390285e-05
1.87129656e-05
1.876606233e-05
1.881067449e-05
1.871417157e-05
1.876823176e-05
1.881390274e-05
1.871429694e-05
1.876889259e-05
1.881574384e-05
1.871307377e-05
1.876667298e-05
1.881238538e-05
1.871429691e-05
1.876889251e-05
1.881574372e-05
1.871417157e-05
1.871302648e-05
1.871429691e-05
1.876823176e-05
1.876642241e-05
1.876889251e-05
1.881390274e-05
1.881170637e-05
1.881574372e-05
1.87141716e-05
1.871302651e-05
1.871429694e-05
1.876823184e-05
1.876642249e-05
1.876889259e-05
1.881390285e-05
1.881170648e-05
1.881574384e-05
)
;
    }
    procBoundary1to0
    {
        type            processor;
        value           nonuniform List<scalar> 9(1.864785086e-05 1.86478505e-05 1.864785086e-05 1.864785379e-05 1.864785343e-05 1.864785379e-05 1.864785743e-05 1.864785707e-05 1.864785743e-05);
    }
}


// ************************************************************************* //
