/*--------------------------------*- C++ -*----------------------------------*\
  =========                 |
  \\      /  F ield         | OpenFOAM: The Open Source CFD Toolbox
   \\    /   O peration     | Website:  https://openfoam.org
    \\  /    A nd           | Version:  7
     \\/     M anipulation  |
\*---------------------------------------------------------------------------*/
FoamFile
{
    version     2.0;
    format      ascii;
    class       volScalarField;
    location    "0.095";
    object      p;
}
// * * * * * * * * * * * * * * * * * * * * * * * * * * * * * * * * * * * * * //

dimensions      [1 -1 -2 0 0 0 0];

internalField   nonuniform List<scalar> 
27
(
101325.8549
101325.8516
101325.8549
101325.7947
101325.7912
101325.7947
101325.7418
101325.7382
101325.7418
101325.5157
101325.5144
101325.5157
101325.4665
101325.4651
101325.4665
101325.4189
101325.4172
101325.4189
101325.1944
101325.1956
101325.1944
101325.1639
101325.165
101325.1639
101325.1296
101325.1304
101325.1296
)
;

boundaryField
{
    inlet
    {
        type            zeroGradient;
    }
    outlet
    {
        type            totalPressure;
        rho             rho;
        psi             none;
        gamma           1;
        p0              uniform 101325;
        value           uniform 101325;
    }
    walls
    {
        type            zeroGradient;
    }
    procBoundary1to0
    {
        type            processor;
        value           nonuniform List<scalar> 9(101326.4392 101326.4348 101326.4392 101326.3734 101326.3689 101326.3734 101326.3176 101326.313 101326.3176);
    }
}


// ************************************************************************* //
