/*--------------------------------*- C++ -*----------------------------------*\
  =========                 |
  \\      /  F ield         | OpenFOAM: The Open Source CFD Toolbox
   \\    /   O peration     | Website:  https://openfoam.org
    \\  /    A nd           | Version:  7
     \\/     M anipulation  |
\*---------------------------------------------------------------------------*/
FoamFile
{
    version     2.0;
    format      ascii;
    class       volScalarField;
    location    "0.095";
    object      pDyn;
}
// * * * * * * * * * * * * * * * * * * * * * * * * * * * * * * * * * * * * * //

dimensions      [1 -1 -2 0 0 0 0];

internalField   nonuniform List<scalar> 
27
(
1.585098352
1.63644283
1.585098042
1.627122372
1.679184369
1.627122209
1.569183884
1.620761157
1.569183826
1.382902961
1.445602303
1.382902743
1.421868374
1.48580341
1.421868233
1.342080966
1.404817262
1.342080786
1.300544457
1.376146399
1.300544425
1.309082121
1.386205178
1.309081911
1.180272534
1.254555505
1.180272414
)
;

boundaryField
{
    inlet
    {
        type            calculated;
        value           nonuniform 0();
    }
    outlet
    {
        type            calculated;
        value           nonuniform List<scalar> 9(1.300541961 1.309080002 1.180271023 1.376143742 1.38620292 1.25455389 1.30054193 1.309079792 1.180270903);
    }
    walls
    {
        type            calculated;
        value           uniform 0;
    }
    procBoundary1to0
    {
        type            processor;
        value           nonuniform List<scalar> 9(1.833536479 1.872028007 1.833536441 1.870236522 1.909047756 1.870236325 1.830512874 1.86921479 1.830512808);
    }
}


// ************************************************************************* //
