/*--------------------------------*- C++ -*----------------------------------*\
  =========                 |
  \\      /  F ield         | OpenFOAM: The Open Source CFD Toolbox
   \\    /   O peration     | Website:  https://openfoam.org
    \\  /    A nd           | Version:  7
     \\/     M anipulation  |
\*---------------------------------------------------------------------------*/
FoamFile
{
    version     2.0;
    format      ascii;
    class       surfaceScalarField;
    location    "0.095";
    object      rhoPhi;
}
// * * * * * * * * * * * * * * * * * * * * * * * * * * * * * * * * * * * * * //

dimensions      [1 0 -1 0 0 0 0];

internalField   nonuniform List<scalar> 
54
(
6.457725757e-08
-4.00389548e-08
2.908837919e-05
-6.457531098e-08
-3.860668335e-08
2.966098856e-05
-4.003912009e-08
2.908837907e-05
6.507642485e-08
-1.604556711e-07
2.950819067e-05
-6.507568357e-08
-1.596888875e-07
3.008250267e-05
-1.604560776e-07
2.950818795e-05
6.526127943e-08
2.880944391e-05
-6.525928661e-08
2.93893769e-05
2.880944117e-05
5.793065388e-08
-1.612557337e-07
2.786444166e-05
-5.793225618e-08
-1.578951135e-07
2.857483392e-05
-1.612546336e-07
2.786443882e-05
5.836109833e-08
-2.676754466e-07
2.820703071e-05
-5.835910779e-08
-2.650787241e-07
2.892385985e-05
-2.676749844e-07
2.820702893e-05
5.844965572e-08
2.717581448e-05
-5.844909609e-08
2.790063563e-05
2.717581361e-05
3.916037844e-08
-4.363100144e-07
-3.915956458e-08
-4.284613267e-07
-4.363109962e-07
3.881947576e-08
-5.170292954e-07
-3.881929227e-08
-5.097275885e-07
-5.170294802e-07
3.812159507e-08
-3.812126598e-08
)
;

boundaryField
{
    inlet
    {
        type            calculated;
        value           nonuniform 0();
    }
    outlet
    {
        type            calculated;
        value           nonuniform List<scalar> 9(2.781341605e-05 2.779425787e-05 2.618359235e-05 2.862099981e-05 2.861543449e-05 2.701743085e-05 2.781341589e-05 2.779425535e-05 2.618359039e-05);
    }
    walls
    {
        type            calculated;
        value           uniform 0;
    }
    procBoundary1to0
    {
        type            processor;
        value           nonuniform List<scalar> 9(-3.120065551e-05 -3.162344695e-05 -3.120065133e-05 -3.157643844e-05 -3.199878235e-05 -3.157643811e-05 -3.111068138e-05 -3.153686287e-05 -3.111068176e-05);
    }
}


// ************************************************************************* //
