/*--------------------------------*- C++ -*----------------------------------*\
  =========                 |
  \\      /  F ield         | OpenFOAM: The Open Source CFD Toolbox
   \\    /   O peration     | Website:  https://openfoam.org
    \\  /    A nd           | Version:  7
     \\/     M anipulation  |
\*---------------------------------------------------------------------------*/
FoamFile
{
    version     2.0;
    format      ascii;
    class       volVectorField::Internal;
    location    "0.095";
    object      steelCloud:UTrans;
}
// * * * * * * * * * * * * * * * * * * * * * * * * * * * * * * * * * * * * * //

dimensions      [1 1 -1 0 0 0 0];

value           nonuniform List<vector> 
27
(
(-4.047033071e-08 -2.225149724e-15 -1.85657324e-10)
(-4.051432402e-08 -2.227568575e-15 -1.85859143e-10)
(-4.047033071e-08 -2.225149724e-15 -1.85657324e-10)
(-4.051432402e-08 -2.227568575e-15 -1.85859143e-10)
(-4.056215413e-08 -2.230198382e-15 -1.860785632e-10)
(-4.051432402e-08 -2.227568575e-15 -1.85859143e-10)
(-4.047033071e-08 -2.225149724e-15 -1.85657324e-10)
(-4.051432402e-08 -2.227568575e-15 -1.85859143e-10)
(-4.047033071e-08 -2.225149724e-15 -1.85657324e-10)
(-3.203842932e-08 -1.761544838e-15 -1.469760427e-10)
(-3.205717016e-08 -1.762575252e-15 -1.470620161e-10)
(-3.203842932e-08 -1.761544838e-15 -1.469760427e-10)
(-3.205717016e-08 -1.762575252e-15 -1.470620161e-10)
(-3.207701161e-08 -1.763666179e-15 -1.471530386e-10)
(-3.205717016e-08 -1.762575252e-15 -1.470620161e-10)
(-3.203842932e-08 -1.761544838e-15 -1.469760427e-10)
(-3.205717016e-08 -1.762575252e-15 -1.470620161e-10)
(-3.203842932e-08 -1.761544838e-15 -1.469760427e-10)
(-2.732220156e-08 -1.502236038e-15 -1.253403849e-10)
(-2.733079995e-08 -1.502708797e-15 -1.253798299e-10)
(-2.732220156e-08 -1.502236038e-15 -1.253403849e-10)
(-2.733079995e-08 -1.502708797e-15 -1.253798299e-10)
(-2.733972044e-08 -1.503199265e-15 -1.254207526e-10)
(-2.733079995e-08 -1.502708797e-15 -1.253798299e-10)
(-2.732220156e-08 -1.502236038e-15 -1.253403849e-10)
(-2.733079995e-08 -1.502708797e-15 -1.253798299e-10)
(-2.732220157e-08 -1.502236038e-15 -1.253403849e-10)
)
;


// ************************************************************************* //
