/*--------------------------------*- C++ -*----------------------------------*\
  =========                 |
  \\      /  F ield         | OpenFOAM: The Open Source CFD Toolbox
   \\    /   O peration     | Website:  https://openfoam.org
    \\  /    A nd           | Version:  7
     \\/     M anipulation  |
\*---------------------------------------------------------------------------*/
FoamFile
{
    version     2.0;
    format      ascii;
    class       volScalarField::Internal;
    location    "0.095";
    object      steelCloud:hsCoeff;
}
// * * * * * * * * * * * * * * * * * * * * * * * * * * * * * * * * * * * * * //

dimensions      [1 2 -2 -1 0 0 0];

value           nonuniform List<scalar> 
27
(
4.334031744e-06
4.338743058e-06
4.334031744e-06
4.338743058e-06
4.34386526e-06
4.338743058e-06
4.334031744e-06
4.338743058e-06
4.334031744e-06
3.431046084e-06
3.433053071e-06
3.431046084e-06
3.433053071e-06
3.435177922e-06
3.433053071e-06
3.431046084e-06
3.433053071e-06
3.431046084e-06
2.925977792e-06
2.926898607e-06
2.925977792e-06
2.926898607e-06
2.927853916e-06
2.926898607e-06
2.925977792e-06
2.926898607e-06
2.925977792e-06
)
;


// ************************************************************************* //
