/*--------------------------------*- C++ -*----------------------------------*\
  =========                 |
  \\      /  F ield         | OpenFOAM: The Open Source CFD Toolbox
   \\    /   O peration     | Website:  https://openfoam.org
    \\  /    A nd           | Version:  7
     \\/     M anipulation  |
\*---------------------------------------------------------------------------*/
FoamFile
{
    version     2.0;
    format      ascii;
    class       volScalarField::Internal;
    location    "0.095";
    object      steelCloud:UCoeff;
}
// * * * * * * * * * * * * * * * * * * * * * * * * * * * * * * * * * * * * * //

dimensions      [1 0 0 0 0 0 0];

value           nonuniform List<scalar> 
27
(
2.220378698e-08
2.222792362e-08
2.220378698e-08
2.222792362e-08
2.225416531e-08
2.222792362e-08
2.220378698e-08
2.222792362e-08
2.220378698e-08
1.757767844e-08
1.758796048e-08
1.757767844e-08
1.758796048e-08
1.759884636e-08
1.758796048e-08
1.757767844e-08
1.758796048e-08
1.757767844e-08
1.499015038e-08
1.499486783e-08
1.499015038e-08
1.499486783e-08
1.499976199e-08
1.499486783e-08
1.499015038e-08
1.499486783e-08
1.499015038e-08
)
;


// ************************************************************************* //
