/*--------------------------------*- C++ -*----------------------------------*\
  =========                 |
  \\      /  F ield         | OpenFOAM: The Open Source CFD Toolbox
   \\    /   O peration     | Website:  https://openfoam.org
    \\  /    A nd           | Version:  7
     \\/     M anipulation  |
\*---------------------------------------------------------------------------*/
FoamFile
{
    version     2.0;
    format      ascii;
    class       volVectorField;
    location    "0.095";
    object      U;
}
// * * * * * * * * * * * * * * * * * * * * * * * * * * * * * * * * * * * * * //

dimensions      [0 1 -1 0 0 0 0];

internalField   nonuniform List<vector> 
27
(
(1.657800202 0.005069373851 -0.03189874839)
(1.68439165 1.01723405e-07 -0.03192328855)
(1.657800028 -0.005069339768 -0.0318988179)
(1.679800006 0.005052495128 0.01700002376)
(1.706414537 4.106097324e-08 0.0172560516)
(1.679799913 -0.00505252288 0.01699998359)
(1.64921628 0.004939316382 -0.04276760476)
(1.676061212 8.23296455e-08 -0.04289533861)
(1.64921624 -0.004939302092 -0.04276757474)
(1.550734284 0.005438533911 -0.04377525215)
(1.585432361 -5.501581688e-08 -0.04373920684)
(1.550734147 -0.005438638027 -0.04377511813)
(1.572884934 0.005381746503 0.0164532324)
(1.607768404 9.158637482e-08 0.01692345972)
(1.572884837 -0.005381705937 0.01645330431)
(1.527315908 0.005186213973 -0.05529995968)
(1.562551065 3.982477204e-08 -0.05541197047)
(1.527315786 -0.005186223653 -0.05530002218)
(1.505381097 0.005104697779 -0.06016997652)
(1.548448168 3.028153948e-08 -0.06002382803)
(1.505381062 -0.005104675038 -0.0601700052)
(1.511408092 0.004985046857 0.006286576834)
(1.555152485 1.12280661e-08 0.007152861192)
(1.511407941 -0.004985043678 0.006286533973)
(1.433516913 0.004715925814 -0.07180201907)
(1.477906782 1.129429065e-08 -0.07179432914)
(1.433516821 -0.004715918553 -0.07180203134)
)
;

boundaryField
{
    inlet
    {
        type            interstitialInletVelocity;
        inletVelocity   nonuniform 0();
        value           nonuniform 0();
    }
    outlet
    {
        type            pressureInletOutletVelocity;
        phi             alphaRhoPhi;
        value           nonuniform List<vector> 9((1.505381097 0.005104697779 -0.06016997652) (1.511408092 0.004985046857 0.006286576834) (1.433516913 0.004715925814 -0.07180201907) (1.548448168 3.028153948e-08 -0.06002382803) (1.555152485 1.12280661e-08 0.007152861192) (1.477906782 1.129429065e-08 -0.07179432914) (1.505381062 -0.005104675038 -0.0601700052) (1.511407941 -0.004985043678 0.006286533973) (1.433516821 -0.004715918553 -0.07180203134));
    }
    walls
    {
        type            noSlip;
    }
    procBoundary1to0
    {
        type            processor;
        value           nonuniform List<vector> 9((1.779381363 0.004184938584 -0.02278432937) (1.79794698 5.264942005e-08 -0.02282949419) (1.779381341 -0.004184952792 -0.02278429397) (1.797175413 0.004174975577 0.01332814133) (1.815715617 9.884478933e-08 0.01346190507) (1.797175316 -0.004174944105 0.01332809745) (1.777773604 0.004116652742 -0.03173852007) (1.796455368 2.230330175e-08 -0.03183622947) (1.777773567 -0.004116697377 -0.03173860048));
    }
}


// ************************************************************************* //
