/*--------------------------------*- C++ -*----------------------------------*\
  =========                 |
  \\      /  F ield         | OpenFOAM: The Open Source CFD Toolbox
   \\    /   O peration     | Website:  https://openfoam.org
    \\  /    A nd           | Version:  7
     \\/     M anipulation  |
\*---------------------------------------------------------------------------*/
FoamFile
{
    version     2.0;
    format      ascii;
    class       volScalarField;
    location    "0.06";
    object      muavg;
}
// * * * * * * * * * * * * * * * * * * * * * * * * * * * * * * * * * * * * * //

dimensions      [1 -1 -1 0 0 0 0];

internalField   nonuniform List<scalar> 
27
(
1.867244141e-05
1.867244073e-05
1.867244141e-05
1.867244694e-05
1.867244627e-05
1.867244695e-05
1.86724538e-05
1.867245312e-05
1.86724538e-05
1.869391785e-05
1.869391684e-05
1.869391785e-05
1.869392604e-05
1.869392503e-05
1.869392604e-05
1.869393618e-05
1.869393516e-05
1.869393618e-05
1.870615592e-05
1.870615469e-05
1.870615593e-05
1.870616599e-05
1.870616475e-05
1.8706166e-05
1.870617845e-05
1.87061772e-05
1.870617845e-05
)
;

boundaryField
{
    inlet
    {
        type            calculated;
        value           nonuniform 0();
    }
    outlet
    {
        type            calculated;
        value           nonuniform List<scalar> 9(1.88126665e-05 1.881039518e-05 1.881467414e-05 1.880928009e-05 1.880716238e-05 1.881113994e-05 1.881266766e-05 1.881039526e-05 1.881467498e-05);
    }
    walls
    {
        type            calculated;
        value           nonuniform List<scalar> 
36
(
1.871282681e-05
1.876629622e-05
1.88126665e-05
1.871164204e-05
1.876412181e-05
1.880928009e-05
1.871282678e-05
1.87662966e-05
1.881266766e-05
1.87129575e-05
1.876698463e-05
1.881467414e-05
1.871175589e-05
1.87647585e-05
1.881113994e-05
1.871295747e-05
1.876698489e-05
1.881467498e-05
1.871282678e-05
1.871170466e-05
1.871295747e-05
1.87662966e-05
1.876449347e-05
1.876698489e-05
1.881266766e-05
1.881039526e-05
1.881467498e-05
1.871282681e-05
1.871170471e-05
1.87129575e-05
1.876629622e-05
1.876449347e-05
1.876698463e-05
1.88126665e-05
1.881039518e-05
1.881467414e-05
)
;
    }
    procBoundary1to0
    {
        type            processor;
        value           nonuniform List<scalar> 9(1.864709053e-05 1.864709017e-05 1.864709053e-05 1.864709373e-05 1.864709337e-05 1.864709373e-05 1.864709765e-05 1.864709728e-05 1.864709765e-05);
    }
}


// ************************************************************************* //
