/*--------------------------------*- C++ -*----------------------------------*\
  =========                 |
  \\      /  F ield         | OpenFOAM: The Open Source CFD Toolbox
   \\    /   O peration     | Website:  https://openfoam.org
    \\  /    A nd           | Version:  7
     \\/     M anipulation  |
\*---------------------------------------------------------------------------*/
FoamFile
{
    version     2.0;
    format      ascii;
    class       volScalarField;
    location    "0.06";
    object      pDyn;
}
// * * * * * * * * * * * * * * * * * * * * * * * * * * * * * * * * * * * * * //

dimensions      [1 -1 -2 0 0 0 0];

internalField   nonuniform List<scalar> 
27
(
1.585364447
1.636600355
1.585363809
1.627287602
1.679233133
1.627288426
1.569435791
1.620899366
1.56943581
1.383305737
1.44584701
1.383302267
1.422113162
1.485879927
1.422114064
1.342417424
1.404987232
1.342415251
1.300947734
1.376336237
1.300939827
1.309268452
1.386158973
1.309269296
1.180531237
1.254576107
1.180525623
)
;

boundaryField
{
    inlet
    {
        type            calculated;
        value           nonuniform 0();
    }
    outlet
    {
        type            calculated;
        value           nonuniform List<scalar> 9(1.300945234 1.309266329 1.180529723 1.376333575 1.386156711 1.254574488 1.300937327 1.309267174 1.180524109);
    }
    walls
    {
        type            calculated;
        value           uniform 0;
    }
    procBoundary1to0
    {
        type            processor;
        value           nonuniform List<scalar> 9(1.833685803 1.872114777 1.833686707 1.870331664 1.909074647 1.870332182 1.830664881 1.869301383 1.830665707);
    }
}


// ************************************************************************* //
