/*--------------------------------*- C++ -*----------------------------------*\
  =========                 |
  \\      /  F ield         | OpenFOAM: The Open Source CFD Toolbox
   \\    /   O peration     | Website:  https://openfoam.org
    \\  /    A nd           | Version:  7
     \\/     M anipulation  |
\*---------------------------------------------------------------------------*/
FoamFile
{
    version     2.0;
    format      ascii;
    class       surfaceScalarField;
    location    "0.06";
    object      phi;
}
// * * * * * * * * * * * * * * * * * * * * * * * * * * * * * * * * * * * * * //

dimensions      [0 3 -1 0 0 0 0];

internalField   nonuniform List<scalar> 
54
(
5.587317286e-08
-3.487498912e-08
2.527021028e-05
-5.587752539e-08
-3.364079686e-08
2.576413679e-05
-3.487328367e-08
2.527020565e-05
5.630543149e-08
-1.391021445e-07
2.563181847e-05
-5.630488608e-08
-1.384388413e-07
2.612733149e-05
-1.391033557e-07
2.563182301e-05
5.646515305e-08
2.50284369e-05
-5.646774543e-08
2.552866006e-05
2.502843339e-05
5.025433712e-08
-1.405097752e-07
2.428279273e-05
-5.02688862e-08
-1.375997674e-07
2.489645383e-05
-1.405063747e-07
2.428277039e-05
5.063050027e-08
-2.329358765e-07
2.457717324e-05
-5.063163396e-08
-2.306834919e-07
2.51965005e-05
-2.329375151e-07
2.457717998e-05
5.071244436e-08
2.368429911e-05
-5.072256101e-08
2.431043726e-05
2.368428519e-05
3.400428471e-08
-3.809240011e-07
-3.401996181e-08
-3.741021639e-07
-3.809233635e-07
3.372604184e-08
-4.511685754e-07
-3.372952755e-08
-4.448245555e-07
-4.511707905e-07
3.313951989e-08
-3.315232214e-08
)
;

boundaryField
{
    inlet
    {
        type            calculated;
        value           nonuniform 0();
    }
    outlet
    {
        type            calculated;
        value           nonuniform List<scalar> 9(2.427327455e-05 2.425174111e-05 2.285307938e-05 2.497148368e-05 2.496187187e-05 2.357416386e-05 2.42732366e-05 2.425174698e-05 2.285304959e-05);
    }
    walls
    {
        type            calculated;
        value           uniform 0;
    }
    procBoundary1to0
    {
        type            processor;
        value           nonuniform List<scalar> 9(-2.700174898e-05 -2.736578711e-05 -2.700174911e-05 -2.732518118e-05 -2.768896887e-05 -2.73251853e-05 -2.692395421e-05 -2.729088877e-05 -2.69239581e-05);
    }
}


// ************************************************************************* //
