/*--------------------------------*- C++ -*----------------------------------*\
  =========                 |
  \\      /  F ield         | OpenFOAM: The Open Source CFD Toolbox
   \\    /   O peration     | Website:  https://openfoam.org
    \\  /    A nd           | Version:  7
     \\/     M anipulation  |
\*---------------------------------------------------------------------------*/
FoamFile
{
    version     2.0;
    format      ascii;
    class       volVectorField::Internal;
    location    "0.06";
    object      steelCloud:UTrans;
}
// * * * * * * * * * * * * * * * * * * * * * * * * * * * * * * * * * * * * * //

dimensions      [1 1 -1 0 0 0 0];

value           nonuniform List<vector> 
27
(
(-4.0537994e-08 2.32435601e-16 -1.858349775e-10)
(-4.058206087e-08 2.326882703e-16 -1.860369896e-10)
(-4.0537994e-08 2.32435601e-16 -1.858349775e-10)
(-4.058206087e-08 2.326882703e-16 -1.860369896e-10)
(-4.062997094e-08 2.329629758e-16 -1.862566198e-10)
(-4.058206087e-08 2.326882703e-16 -1.860369896e-10)
(-4.0537994e-08 2.32435601e-16 -1.858349775e-10)
(-4.058206087e-08 2.326882703e-16 -1.860369896e-10)
(-4.0537994e-08 2.32435601e-16 -1.858349775e-10)
(-3.209199512e-08 1.84008172e-16 -1.471166824e-10)
(-3.211076729e-08 1.841158073e-16 -1.472027382e-10)
(-3.209199512e-08 1.84008172e-16 -1.471166824e-10)
(-3.211076729e-08 1.841158073e-16 -1.472027382e-10)
(-3.213064191e-08 1.842297638e-16 -1.472938477e-10)
(-3.211076729e-08 1.841158073e-16 -1.472027382e-10)
(-3.209199512e-08 1.84008172e-16 -1.471166824e-10)
(-3.211076729e-08 1.841158073e-16 -1.472027382e-10)
(-3.209199512e-08 1.84008172e-16 -1.471166824e-10)
(-2.736788219e-08 1.569211872e-16 -1.254603217e-10)
(-2.737649495e-08 1.569705708e-16 -1.254998045e-10)
(-2.736788219e-08 1.569211872e-16 -1.254603217e-10)
(-2.737649495e-08 1.569705708e-16 -1.254998045e-10)
(-2.738543035e-08 1.570218043e-16 -1.255407663e-10)
(-2.737649495e-08 1.569705708e-16 -1.254998045e-10)
(-2.736788219e-08 1.569211872e-16 -1.254603217e-10)
(-2.737649495e-08 1.569705708e-16 -1.254998045e-10)
(-2.736788219e-08 1.569211872e-16 -1.254603217e-10)
)
;


// ************************************************************************* //
