/*--------------------------------*- C++ -*----------------------------------*\
  =========                 |
  \\      /  F ield         | OpenFOAM: The Open Source CFD Toolbox
   \\    /   O peration     | Website:  https://openfoam.org
    \\  /    A nd           | Version:  7
     \\/     M anipulation  |
\*---------------------------------------------------------------------------*/
FoamFile
{
    version     2.0;
    format      ascii;
    class       volScalarField::Internal;
    location    "0.06";
    object      steelCloud:hsTrans;
}
// * * * * * * * * * * * * * * * * * * * * * * * * * * * * * * * * * * * * * //

dimensions      [1 2 -2 0 0 0 0];

value           nonuniform List<scalar> 
27
(
0.0001511845653
0.0001513489107
0.0001511845653
0.0001513489107
0.0001515275891
0.0001513489107
0.0001511845653
0.0001513489107
0.0001511845653
0.0001196856049
0.0001197556148
0.0001196856049
0.0001197556148
0.0001198297363
0.0001197556148
0.0001196856049
0.0001197556148
0.0001196856049
0.0001020672452
0.0001020993661
0.0001020672452
0.0001020993661
0.0001021326902
0.0001020993661
0.0001020672452
0.0001020993661
0.0001020672452
)
;


// ************************************************************************* //
