/*--------------------------------*- C++ -*----------------------------------*\
  =========                 |
  \\      /  F ield         | OpenFOAM: The Open Source CFD Toolbox
   \\    /   O peration     | Website:  https://openfoam.org
    \\  /    A nd           | Version:  7
     \\/     M anipulation  |
\*---------------------------------------------------------------------------*/
FoamFile
{
    version     2.0;
    format      ascii;
    class       volScalarField::Internal;
    location    "0.06";
    object      steelCloud:hsCoeff;
}
// * * * * * * * * * * * * * * * * * * * * * * * * * * * * * * * * * * * * * //

dimensions      [1 2 -2 -1 0 0 0];

value           nonuniform List<scalar> 
27
(
4.33411775e-06
4.338829157e-06
4.33411775e-06
4.338829157e-06
4.343951461e-06
4.338829157e-06
4.33411775e-06
4.338829157e-06
4.33411775e-06
3.431114171e-06
3.433121197e-06
3.431114171e-06
3.433121197e-06
3.435246091e-06
3.433121197e-06
3.431114171e-06
3.433121197e-06
3.431114171e-06
2.926035856e-06
2.926956689e-06
2.926035856e-06
2.926956689e-06
2.927912017e-06
2.926956689e-06
2.926035856e-06
2.926956689e-06
2.926035856e-06
)
;


// ************************************************************************* //
