/*--------------------------------*- C++ -*----------------------------------*\
  =========                 |
  \\      /  F ield         | OpenFOAM: The Open Source CFD Toolbox
   \\    /   O peration     | Website:  https://openfoam.org
    \\  /    A nd           | Version:  7
     \\/     M anipulation  |
\*---------------------------------------------------------------------------*/
FoamFile
{
    version     2.0;
    format      ascii;
    class       volScalarField;
    location    "0.06";
    object      Tavg;
}
// * * * * * * * * * * * * * * * * * * * * * * * * * * * * * * * * * * * * * //

dimensions      [0 0 0 1 0 0 0];

internalField   nonuniform List<scalar> 
27
(
304.0170181
304.0170053
304.0170182
304.0171234
304.0171105
304.0171234
304.0172536
304.0172407
304.0172537
304.4236298
304.4236107
304.42363
304.4237855
304.4237663
304.4237856
304.4239782
304.4239589
304.4239783
304.6553672
304.6553437
304.6553673
304.6555585
304.655535
304.6555586
304.6557952
304.6557714
304.6557953
)
;

boundaryField
{
    inlet
    {
        type            fixedValue;
        value           nonuniform 0();
    }
    outlet
    {
        type            zeroGradient;
    }
    walls
    {
        type            zeroGradient;
    }
    procBoundary1to0
    {
        type            processor;
        value           nonuniform List<scalar> 9(303.5371507 303.5371438 303.5371507 303.5372116 303.5372047 303.5372116 303.537286 303.5372791 303.537286);
    }
}


// ************************************************************************* //
