/*--------------------------------*- C++ -*----------------------------------*\
  =========                 |
  \\      /  F ield         | OpenFOAM: The Open Source CFD Toolbox
   \\    /   O peration     | Website:  https://openfoam.org
    \\  /    A nd           | Version:  7
     \\/     M anipulation  |
\*---------------------------------------------------------------------------*/
FoamFile
{
    version     2.0;
    format      ascii;
    class       surfaceScalarField;
    location    "0.06";
    object      alphaRhoPhi;
}
// * * * * * * * * * * * * * * * * * * * * * * * * * * * * * * * * * * * * * //

dimensions      [1 0 -1 0 0 0 0];

internalField   nonuniform List<scalar> 
54
(
2.653590879e-08
3.664884642e-08
2.314799131e-05
-2.653450376e-08
3.611410367e-08
2.322813408e-05
3.664920378e-08
2.314799185e-05
2.611892529e-08
-1.672237741e-08
2.323841625e-05
-2.611720039e-08
-1.630460039e-08
2.331581303e-05
-1.672258432e-08
2.323841675e-05
2.670556621e-08
2.316772037e-05
-2.670392867e-08
2.324825356e-05
2.316772054e-05
3.1097506e-08
2.058558632e-08
2.309641558e-05
-3.109445358e-08
2.038724728e-08
2.327004349e-05
2.058587023e-08
2.309641874e-05
3.102754419e-08
-4.208150617e-08
2.327016036e-05
-3.102439878e-08
-4.195266232e-08
2.34403105e-05
-4.208177624e-08
2.327016075e-05
3.133610065e-08
2.309441009e-05
-3.133287783e-08
2.326907064e-05
2.309441168e-05
4.223601613e-08
9.261114696e-09
-4.223469616e-08
9.604599576e-09
9.260837345e-09
4.253159992e-08
-7.335342063e-08
-4.252868709e-08
-7.328644009e-08
-7.335409575e-08
4.259200943e-08
-4.259130825e-08
)
;

boundaryField
{
    inlet
    {
        type            calculated;
        value           nonuniform List<scalar> 9(-2.321116678e-05 -2.32111514e-05 -2.321113932e-05 -2.321116523e-05 -2.321114987e-05 -2.321113776e-05 -2.321116678e-05 -2.32111514e-05 -2.321113932e-05);
    }
    outlet
    {
        type            calculated;
        value           nonuniform 0();
    }
    walls
    {
        type            calculated;
        value           uniform 0;
    }
    procBoundary0to1
    {
        type            processor;
        value           nonuniform List<scalar> 9(2.304524883e-05 2.334523762e-05 2.304524903e-05 2.33105712e-05 2.360857689e-05 2.331057476e-05 2.297878975e-05 2.328129479e-05 2.297879314e-05);
    }
}


// ************************************************************************* //
