/*--------------------------------*- C++ -*----------------------------------*\
  =========                 |
  \\      /  F ield         | OpenFOAM: The Open Source CFD Toolbox
   \\    /   O peration     | Website:  https://openfoam.org
    \\  /    A nd           | Version:  7
     \\/     M anipulation  |
\*---------------------------------------------------------------------------*/
FoamFile
{
    version     2.0;
    format      ascii;
    class       volScalarField;
    location    "0.06";
    object      cpavg;
}
// * * * * * * * * * * * * * * * * * * * * * * * * * * * * * * * * * * * * * //

dimensions      [0 2 -2 -1 0 0 0];

internalField   nonuniform List<scalar> 
27
(
1011.62265
1011.62265
1011.62265
1011.622651
1011.622651
1011.622651
1011.622652
1011.622652
1011.622652
1011.63775
1011.63775
1011.63775
1011.637752
1011.637752
1011.637752
1011.637755
1011.637755
1011.637755
1011.663346
1011.663345
1011.663346
1011.66335
1011.663349
1011.66335
1011.663354
1011.663354
1011.663354
)
;

boundaryField
{
    inlet
    {
        type            calculated;
        value           uniform 1011.338357;
    }
    outlet
    {
        type            calculated;
        value           nonuniform 0();
    }
    walls
    {
        type            calculated;
        value           nonuniform List<scalar> 
36
(
1011.454121
1011.564074
1011.659538
1011.454342
1011.564152
1011.659074
1011.454121
1011.564074
1011.659538
1011.454121
1011.56398
1011.659454
1011.454341
1011.564057
1011.658985
1011.454121
1011.56398
1011.659454
1011.454121
1011.454341
1011.454121
1011.564074
1011.564104
1011.56398
1011.659538
1011.659026
1011.659454
1011.454121
1011.454341
1011.454121
1011.564074
1011.564104
1011.56398
1011.659538
1011.659026
1011.659454
)
;
    }
    procBoundary0to1
    {
        type            processor;
        value           nonuniform List<scalar> 9(1011.692175 1011.692174 1011.692175 1011.692181 1011.69218 1011.692181 1011.692189 1011.692188 1011.692189);
    }
}


// ************************************************************************* //
