/*--------------------------------*- C++ -*----------------------------------*\
  =========                 |
  \\      /  F ield         | OpenFOAM: The Open Source CFD Toolbox
   \\    /   O peration     | Website:  https://openfoam.org
    \\  /    A nd           | Version:  7
     \\/     M anipulation  |
\*---------------------------------------------------------------------------*/
FoamFile
{
    version     2.0;
    format      ascii;
    class       volScalarField;
    location    "0.06";
    object      muavg;
}
// * * * * * * * * * * * * * * * * * * * * * * * * * * * * * * * * * * * * * //

dimensions      [1 -1 -1 0 0 0 0];

internalField   nonuniform List<scalar> 
27
(
1.861122134e-05
1.861122131e-05
1.861122134e-05
1.861122234e-05
1.86112223e-05
1.861122234e-05
1.86112234e-05
1.861122336e-05
1.86112234e-05
1.862454243e-05
1.862454229e-05
1.862454243e-05
1.862454411e-05
1.862454397e-05
1.862454411e-05
1.862454608e-05
1.862454593e-05
1.862454608e-05
1.864709053e-05
1.864709017e-05
1.864709053e-05
1.864709373e-05
1.864709337e-05
1.864709373e-05
1.864709765e-05
1.864709728e-05
1.864709765e-05
)
;

boundaryField
{
    inlet
    {
        type            calculated;
        value           uniform 1.835366622e-05;
    }
    outlet
    {
        type            calculated;
        value           nonuniform 0();
    }
    walls
    {
        type            calculated;
        value           nonuniform List<scalar> 
36
(
1.846095494e-05
1.856054235e-05
1.864527886e-05
1.846115706e-05
1.856061287e-05
1.864487118e-05
1.846095494e-05
1.856054229e-05
1.864527874e-05
1.846095473e-05
1.856045843e-05
1.864520527e-05
1.846115684e-05
1.856052775e-05
1.864479272e-05
1.846095473e-05
1.856045838e-05
1.864520518e-05
1.846095494e-05
1.846115693e-05
1.846095473e-05
1.856054229e-05
1.856056919e-05
1.856045838e-05
1.864527874e-05
1.86448283e-05
1.864520518e-05
1.846095494e-05
1.846115693e-05
1.846095473e-05
1.856054235e-05
1.856056921e-05
1.856045843e-05
1.864527886e-05
1.864482835e-05
1.864520527e-05
)
;
    }
    procBoundary0to1
    {
        type            processor;
        value           nonuniform List<scalar> 9(1.867244141e-05 1.867244073e-05 1.867244141e-05 1.867244694e-05 1.867244627e-05 1.867244695e-05 1.86724538e-05 1.867245312e-05 1.86724538e-05);
    }
}


// ************************************************************************* //
