/*--------------------------------*- C++ -*----------------------------------*\
  =========                 |
  \\      /  F ield         | OpenFOAM: The Open Source CFD Toolbox
   \\    /   O peration     | Website:  https://openfoam.org
    \\  /    A nd           | Version:  7
     \\/     M anipulation  |
\*---------------------------------------------------------------------------*/
FoamFile
{
    version     2.0;
    format      ascii;
    class       volScalarField;
    location    "0.06";
    object      p;
}
// * * * * * * * * * * * * * * * * * * * * * * * * * * * * * * * * * * * * * //

dimensions      [1 -1 -2 0 0 0 0];

internalField   nonuniform List<scalar> 
27
(
101329.1421
101329.1353
101329.1421
101329.0749
101329.0682
101329.0749
101329.0222
101329.0153
101329.0222
101327.6099
101327.6054
101327.6099
101327.5431
101327.5385
101327.5431
101327.4863
101327.4817
101327.4863
101326.4424
101326.438
101326.4424
101326.3766
101326.3721
101326.3766
101326.3208
101326.3162
101326.3208
)
;

boundaryField
{
    inlet
    {
        type            zeroGradient;
    }
    outlet
    {
        type            totalPressure;
        rho             rho;
        psi             none;
        gamma           1;
        p0              nonuniform 0();
        value           nonuniform 0();
    }
    walls
    {
        type            zeroGradient;
    }
    procBoundary0to1
    {
        type            processor;
        value           nonuniform List<scalar> 9(101325.8567 101325.8535 101325.8567 101325.7965 101325.7931 101325.7965 101325.7437 101325.74 101325.7437);
    }
}


// ************************************************************************* //
