/*--------------------------------*- C++ -*----------------------------------*\
  =========                 |
  \\      /  F ield         | OpenFOAM: The Open Source CFD Toolbox
   \\    /   O peration     | Website:  https://openfoam.org
    \\  /    A nd           | Version:  7
     \\/     M anipulation  |
\*---------------------------------------------------------------------------*/
FoamFile
{
    version     2.0;
    format      ascii;
    class       volScalarField;
    location    "0.06";
    object      pDyn;
}
// * * * * * * * * * * * * * * * * * * * * * * * * * * * * * * * * * * * * * //

dimensions      [1 -1 -2 0 0 0 0];

internalField   nonuniform List<scalar> 
27
(
1.718067443
1.732205174
1.718067593
1.732971054
1.747498554
1.732971139
1.719618278
1.733796717
1.719618395
1.891710216
1.916717793
1.891710889
1.917828219
1.943023319
1.917828524
1.893978885
1.919110284
1.893979309
1.833685803
1.872114777
1.833686707
1.870331664
1.909074647
1.870332182
1.830664881
1.869301383
1.830665707
)
;

boundaryField
{
    inlet
    {
        type            calculated;
        value           nonuniform List<scalar> 9(2.217813215 2.222724475 2.217810592 2.2227258 2.228226313 2.222723169 2.217813215 2.222724475 2.217810592);
    }
    outlet
    {
        type            calculated;
        value           nonuniform 0();
    }
    walls
    {
        type            calculated;
        value           uniform 0;
    }
    procBoundary0to1
    {
        type            processor;
        value           nonuniform List<scalar> 9(1.585364447 1.636600355 1.585363809 1.627287602 1.679233133 1.627288426 1.569435791 1.620899366 1.56943581);
    }
}


// ************************************************************************* //
