/*--------------------------------*- C++ -*----------------------------------*\
  =========                 |
  \\      /  F ield         | OpenFOAM: The Open Source CFD Toolbox
   \\    /   O peration     | Website:  https://openfoam.org
    \\  /    A nd           | Version:  7
     \\/     M anipulation  |
\*---------------------------------------------------------------------------*/
FoamFile
{
    version     2.0;
    format      ascii;
    class       surfaceScalarField;
    location    "0.06";
    object      phi;
}
// * * * * * * * * * * * * * * * * * * * * * * * * * * * * * * * * * * * * * //

dimensions      [0 3 -1 0 0 0 0];

internalField   nonuniform List<scalar> 
54
(
3.573335323e-08
4.935148708e-08
3.061510855e-05
-3.573146121e-08
4.86890476e-08
3.075527348e-05
4.93519683e-08
3.061510925e-05
3.521355486e-08
-2.251843526e-08
3.076886409e-05
-3.521122934e-08
-2.198188099e-08
3.091042914e-05
-2.251871389e-08
3.076886474e-05
3.596185661e-08
3.064115794e-05
-3.595965149e-08
3.078186746e-05
3.064115815e-05
4.045737692e-08
2.678150265e-08
2.902989715e-05
-4.045340573e-08
2.655509879e-08
2.927396608e-05
2.678187198e-08
2.902990104e-05
4.041441268e-08
-5.474722302e-08
2.927405129e-05
-4.041031566e-08
-5.464468925e-08
2.951806466e-05
-5.474757434e-08
2.927405174e-05
4.076761812e-08
2.90272673e-05
-4.076342528e-08
2.927262654e-05
2.902726923e-05
5.13999649e-08
1.127048701e-08
-5.139835842e-08
1.169694447e-08
1.127014945e-08
5.179697884e-08
-8.926866458e-08
-5.179343142e-08
-8.925159202e-08
-8.926948597e-08
5.183301042e-08
-5.183215703e-08
)
;

boundaryField
{
    inlet
    {
        type            calculated;
        value           nonuniform List<scalar> 9(-3.102855299e-05 -3.106290004e-05 -3.102855299e-05 -3.106290004e-05 -3.11013218e-05 -3.106290004e-05 -3.102855299e-05 -3.106290004e-05 -3.102855299e-05);
    }
    outlet
    {
        type            calculated;
        value           nonuniform 0();
    }
    walls
    {
        type            calculated;
        value           uniform 0;
    }
    procBoundary0to1
    {
        type            processor;
        value           nonuniform List<scalar> 9(2.700174898e-05 2.736578711e-05 2.700174911e-05 2.732518118e-05 2.768896887e-05 2.73251853e-05 2.692395421e-05 2.729088877e-05 2.69239581e-05);
    }
}


// ************************************************************************* //
