/*--------------------------------*- C++ -*----------------------------------*\
  =========                 |
  \\      /  F ield         | OpenFOAM: The Open Source CFD Toolbox
   \\    /   O peration     | Website:  https://openfoam.org
    \\  /    A nd           | Version:  7
     \\/     M anipulation  |
\*---------------------------------------------------------------------------*/
FoamFile
{
    version     2.0;
    format      ascii;
    class       surfaceScalarField;
    location    "0.06";
    object      rhoPhi;
}
// * * * * * * * * * * * * * * * * * * * * * * * * * * * * * * * * * * * * * //

dimensions      [1 0 -1 0 0 0 0];

internalField   nonuniform List<scalar> 
54
(
4.186109324e-08
5.781451803e-08
3.575333913e-05
-4.185887677e-08
5.703771073e-08
3.591672038e-05
5.781508177e-08
3.575333997e-05
4.125157637e-08
-2.637998968e-08
3.593261929e-05
-4.124885209e-08
-2.575107745e-08
3.609753036e-05
-2.638031609e-08
3.593262006e-05
4.212873228e-08
3.578381175e-05
-4.212614901e-08
3.594783032e-05
3.578381202e-05
4.709931101e-08
3.117828589e-08
3.370609499e-05
-4.709468791e-08
3.091451257e-08
3.398983999e-05
3.117871589e-08
3.37060996e-05
4.704908865e-08
-6.373533449e-08
3.399001071e-05
-4.704431906e-08
-6.361555773e-08
3.427351704e-05
-6.373574354e-08
3.399001127e-05
4.746067902e-08
3.370316825e-05
-4.745579783e-08
3.398841898e-05
3.370317057e-05
5.952143955e-08
1.305129908e-08
-5.951957937e-08
1.354544464e-08
1.305090822e-08
5.998266015e-08
-1.033738878e-07
-5.997855217e-08
-1.033564606e-07
-1.033748392e-07
6.002312592e-08
-6.002213777e-08
)
;

boundaryField
{
    inlet
    {
        type            calculated;
        value           nonuniform List<scalar> 9(-3.659598163e-05 -3.663646725e-05 -3.659593834e-05 -3.66364891e-05 -3.668178055e-05 -3.663644573e-05 -3.659598163e-05 -3.663646725e-05 -3.659593834e-05);
    }
    outlet
    {
        type            calculated;
        value           nonuniform 0();
    }
    walls
    {
        type            calculated;
        value           uniform 0;
    }
    procBoundary0to1
    {
        type            processor;
        value           nonuniform List<scalar> 9(3.120165875e-05 3.162389475e-05 3.120165902e-05 3.157693498e-05 3.199869344e-05 3.15769398e-05 3.11116778e-05 3.15372766e-05 3.111168239e-05);
    }
}


// ************************************************************************* //
