/*--------------------------------*- C++ -*----------------------------------*\
  =========                 |
  \\      /  F ield         | OpenFOAM: The Open Source CFD Toolbox
   \\    /   O peration     | Website:  https://openfoam.org
    \\  /    A nd           | Version:  7
     \\/     M anipulation  |
\*---------------------------------------------------------------------------*/
FoamFile
{
    version     2.0;
    format      ascii;
    class       volScalarField::Internal;
    location    "0.06";
    object      steelCloud:hsCoeff;
}
// * * * * * * * * * * * * * * * * * * * * * * * * * * * * * * * * * * * * * //

dimensions      [1 2 -2 -1 0 0 0];

value           nonuniform List<scalar> 
27
(
6.813270773e-06
6.826335118e-06
6.813270773e-06
6.826335118e-06
6.840915139e-06
6.826335118e-06
6.813270773e-06
6.826335118e-06
6.813270773e-06
6.322177637e-06
6.335705959e-06
6.322177637e-06
6.335705959e-06
6.35132038e-06
6.335705959e-06
6.322177637e-06
6.335705959e-06
6.322177637e-06
5.405188879e-06
5.414462651e-06
5.405188879e-06
5.414462651e-06
5.424875696e-06
5.414462651e-06
5.405188879e-06
5.414462651e-06
5.405188879e-06
)
;


// ************************************************************************* //
