/*--------------------------------*- C++ -*----------------------------------*\
  =========                 |
  \\      /  F ield         | OpenFOAM: The Open Source CFD Toolbox
   \\    /   O peration     | Website:  https://openfoam.org
    \\  /    A nd           | Version:  7
     \\/     M anipulation  |
\*---------------------------------------------------------------------------*/
FoamFile
{
    version     2.0;
    format      ascii;
    class       volScalarField::Internal;
    location    "0.06";
    object      steelCloud:hsTrans;
}
// * * * * * * * * * * * * * * * * * * * * * * * * * * * * * * * * * * * * * //

dimensions      [1 2 -2 0 0 0 0];

value           nonuniform List<scalar> 
27
(
0.0002376634507
0.0002381191669
0.0002376634507
0.0002381191669
0.0002386277534
0.0002381191669
0.0002376634507
0.0002381191669
0.0002376634507
0.0002205329281
0.0002210048288
0.0002205329281
0.0002210048288
0.0002215494978
0.0002210048288
0.0002205329281
0.0002210048288
0.0002205329281
0.0001885461306
0.0001888696223
0.0001885461306
0.0001888696223
0.0001892328546
0.0001888696223
0.0001885461306
0.0001888696223
0.0001885461306
)
;


// ************************************************************************* //
