/*--------------------------------*- C++ -*----------------------------------*\
  =========                 |
  \\      /  F ield         | OpenFOAM: The Open Source CFD Toolbox
   \\    /   O peration     | Website:  https://openfoam.org
    \\  /    A nd           | Version:  7
     \\/     M anipulation  |
\*---------------------------------------------------------------------------*/
FoamFile
{
    version     2.0;
    format      ascii;
    class       volVectorField::Internal;
    location    "0.06";
    object      steelCloud:UTrans;
}
// * * * * * * * * * * * * * * * * * * * * * * * * * * * * * * * * * * * * * //

dimensions      [1 1 -1 0 0 0 0];

value           nonuniform List<vector> 
27
(
(-6.37260789e-08 3.653907849e-16 -2.921341997e-10)
(-6.384827271e-08 3.660914163e-16 -2.926943627e-10)
(-6.37260789e-08 3.653907849e-16 -2.921341997e-10)
(-6.384827271e-08 3.660914163e-16 -2.926943627e-10)
(-6.398464298e-08 3.668733323e-16 -2.933195137e-10)
(-6.384827271e-08 3.660914163e-16 -2.926943627e-10)
(-6.37260789e-08 3.653907849e-16 -2.921341997e-10)
(-6.384827271e-08 3.660914163e-16 -2.926943627e-10)
(-6.37260789e-08 3.653907849e-16 -2.921341997e-10)
(-5.913277255e-08 3.390538151e-16 -2.710774848e-10)
(-5.925930604e-08 3.397793293e-16 -2.716575419e-10)
(-5.913277255e-08 3.390538151e-16 -2.710774848e-10)
(-5.925930604e-08 3.397793293e-16 -2.716575419e-10)
(-5.940535129e-08 3.406167194e-16 -2.72327045e-10)
(-5.925930604e-08 3.397793293e-16 -2.716575419e-10)
(-5.913277255e-08 3.390538151e-16 -2.710774848e-10)
(-5.925930604e-08 3.397793293e-16 -2.716575419e-10)
(-5.913277255e-08 3.390538151e-16 -2.710774848e-10)
(-5.055596709e-08 2.898763711e-16 -2.31759544e-10)
(-5.06427068e-08 2.903737168e-16 -2.321571777e-10)
(-5.055596709e-08 2.898763711e-16 -2.31759544e-10)
(-5.06427068e-08 2.903737168e-16 -2.321571777e-10)
(-5.074010239e-08 2.909321609e-16 -2.326036603e-10)
(-5.06427068e-08 2.903737168e-16 -2.321571777e-10)
(-5.055596709e-08 2.898763711e-16 -2.31759544e-10)
(-5.06427068e-08 2.903737168e-16 -2.321571777e-10)
(-5.055596709e-08 2.898763711e-16 -2.31759544e-10)
)
;


// ************************************************************************* //
