/*--------------------------------*- C++ -*----------------------------------*\
  =========                 |
  \\      /  F ield         | OpenFOAM: The Open Source CFD Toolbox
   \\    /   O peration     | Website:  https://openfoam.org
    \\  /    A nd           | Version:  7
     \\/     M anipulation  |
\*---------------------------------------------------------------------------*/
FoamFile
{
    version     2.0;
    format      ascii;
    class       volScalarField;
    location    "0.06";
    object      Tavg;
}
// * * * * * * * * * * * * * * * * * * * * * * * * * * * * * * * * * * * * * //

dimensions      [0 0 0 1 0 0 0];

internalField   nonuniform List<scalar> 
27
(
302.858366
302.8583654
302.858366
302.8583849
302.8583843
302.8583849
302.8584051
302.8584044
302.8584051
303.1104271
303.1104244
303.1104271
303.1104592
303.1104565
303.1104592
303.1104966
303.1104938
303.1104966
303.5371507
303.5371438
303.5371507
303.5372116
303.5372047
303.5372116
303.537286
303.5372791
303.537286
)
;

boundaryField
{
    inlet
    {
        type            fixedValue;
        value           uniform 298;
    }
    outlet
    {
        type            zeroGradient;
    }
    walls
    {
        type            zeroGradient;
    }
    procBoundary0to1
    {
        type            processor;
        value           nonuniform List<scalar> 9(304.0170181 304.0170053 304.0170182 304.0171234 304.0171105 304.0171234 304.0172536 304.0172407 304.0172537);
    }
}


// ************************************************************************* //
