/*--------------------------------*- C++ -*----------------------------------*\
  =========                 |
  \\      /  F ield         | OpenFOAM: The Open Source CFD Toolbox
   \\    /   O peration     | Website:  https://openfoam.org
    \\  /    A nd           | Version:  7
     \\/     M anipulation  |
\*---------------------------------------------------------------------------*/
FoamFile
{
    version     2.0;
    format      ascii;
    class       volScalarField;
    location    "0.07";
    object      cpavg;
}
// * * * * * * * * * * * * * * * * * * * * * * * * * * * * * * * * * * * * * //

dimensions      [0 2 -2 -1 0 0 0];

internalField   nonuniform List<scalar> 
27
(
1011.693079
1011.693079
1011.693079
1011.693085
1011.693085
1011.693085
1011.693093
1011.693092
1011.693093
1011.71763
1011.717629
1011.71763
1011.717639
1011.717638
1011.717639
1011.71765
1011.717649
1011.71765
1011.731633
1011.731632
1011.731633
1011.731644
1011.731643
1011.731644
1011.731658
1011.731657
1011.731658
)
;

boundaryField
{
    inlet
    {
        type            calculated;
        value           nonuniform 0();
    }
    outlet
    {
        type            calculated;
        value           nonuniform List<scalar> 9(1011.854084 1011.851506 1011.856279 1011.85028 1011.847876 1011.852317 1011.854084 1011.851506 1011.85628);
    }
    walls
    {
        type            calculated;
        value           nonuniform List<scalar> 
36
(
1011.738388
1011.80078
1011.854084
1011.737008
1011.798267
1011.85028
1011.738388
1011.80078
1011.854084
1011.738533
1011.801553
1011.856279
1011.737133
1011.798981
1011.852317
1011.738533
1011.801553
1011.85628
1011.738388
1011.737078
1011.738533
1011.80078
1011.798686
1011.801553
1011.854084
1011.851506
1011.85628
1011.738388
1011.737078
1011.738533
1011.80078
1011.798687
1011.801553
1011.854084
1011.851506
1011.856279
)
;
    }
    procBoundary1to0
    {
        type            processor;
        value           nonuniform List<scalar> 9(1011.664141 1011.66414 1011.664141 1011.664144 1011.664144 1011.664144 1011.664148 1011.664148 1011.664148);
    }
}


// ************************************************************************* //
