/*--------------------------------*- C++ -*----------------------------------*\
  =========                 |
  \\      /  F ield         | OpenFOAM: The Open Source CFD Toolbox
   \\    /   O peration     | Website:  https://openfoam.org
    \\  /    A nd           | Version:  7
     \\/     M anipulation  |
\*---------------------------------------------------------------------------*/
FoamFile
{
    version     2.0;
    format      ascii;
    class       volScalarField;
    location    "0.07";
    object      muavg;
}
// * * * * * * * * * * * * * * * * * * * * * * * * * * * * * * * * * * * * * //

dimensions      [1 -1 -1 0 0 0 0];

internalField   nonuniform List<scalar> 
27
(
1.867322209e-05
1.867322143e-05
1.867322209e-05
1.867322724e-05
1.867322657e-05
1.867322724e-05
1.867323368e-05
1.867323301e-05
1.867323368e-05
1.869477092e-05
1.869476993e-05
1.869477092e-05
1.869477854e-05
1.869477755e-05
1.869477854e-05
1.869478806e-05
1.869478707e-05
1.869478806e-05
1.870704604e-05
1.870704484e-05
1.870704604e-05
1.870705542e-05
1.870705421e-05
1.870705542e-05
1.87070671e-05
1.870706589e-05
1.87070671e-05
)
;

boundaryField
{
    inlet
    {
        type            calculated;
        value           nonuniform 0();
    }
    outlet
    {
        type            calculated;
        value           nonuniform List<scalar> 9(1.881331584e-05 1.88111279e-05 1.881517844e-05 1.881008705e-05 1.880804573e-05 1.881181638e-05 1.881331608e-05 1.881112788e-05 1.881517861e-05);
    }
    walls
    {
        type            calculated;
        value           nonuniform List<scalar> 
36
(
1.871411469e-05
1.87678713e-05
1.881331584e-05
1.871291837e-05
1.876571782e-05
1.881008705e-05
1.871411465e-05
1.876787132e-05
1.881331608e-05
1.871424035e-05
1.876853349e-05
1.881517844e-05
1.871302704e-05
1.876633005e-05
1.881181638e-05
1.871424031e-05
1.87685335e-05
1.881517861e-05
1.871411465e-05
1.871297908e-05
1.871424031e-05
1.876787132e-05
1.87660776e-05
1.87685335e-05
1.881331608e-05
1.881112788e-05
1.881517861e-05
1.871411469e-05
1.871297911e-05
1.871424035e-05
1.87678713e-05
1.876607763e-05
1.876853349e-05
1.881331584e-05
1.88111279e-05
1.881517844e-05
)
;
    }
    procBoundary1to0
    {
        type            processor;
        value           nonuniform List<scalar> 9(1.864777746e-05 1.86477771e-05 1.864777746e-05 1.864778043e-05 1.864778006e-05 1.864778043e-05 1.86477841e-05 1.864778373e-05 1.86477841e-05);
    }
}


// ************************************************************************* //
