/*--------------------------------*- C++ -*----------------------------------*\
  =========                 |
  \\      /  F ield         | OpenFOAM: The Open Source CFD Toolbox
   \\    /   O peration     | Website:  https://openfoam.org
    \\  /    A nd           | Version:  7
     \\/     M anipulation  |
\*---------------------------------------------------------------------------*/
FoamFile
{
    version     2.0;
    format      ascii;
    class       volScalarField;
    location    "0.07";
    object      p;
}
// * * * * * * * * * * * * * * * * * * * * * * * * * * * * * * * * * * * * * //

dimensions      [1 -1 -2 0 0 0 0];

internalField   nonuniform List<scalar> 
27
(
101325.8563
101325.853
101325.8563
101325.796
101325.7926
101325.796
101325.7432
101325.7396
101325.7432
101325.5165
101325.5152
101325.5165
101325.4673
101325.4658
101325.4673
101325.4197
101325.4179
101325.4197
101325.1946
101325.1959
101325.1946
101325.1642
101325.1653
101325.1642
101325.1299
101325.1306
101325.1299
)
;

boundaryField
{
    inlet
    {
        type            zeroGradient;
    }
    outlet
    {
        type            totalPressure;
        rho             rho;
        psi             none;
        gamma           1;
        p0              uniform 101325;
        value           uniform 101325;
    }
    walls
    {
        type            zeroGradient;
    }
    procBoundary1to0
    {
        type            processor;
        value           nonuniform List<scalar> 9(101326.4416 101326.4372 101326.4416 101326.3758 101326.3713 101326.3758 101326.32 101326.3154 101326.32);
    }
}


// ************************************************************************* //
