/*--------------------------------*- C++ -*----------------------------------*\
  =========                 |
  \\      /  F ield         | OpenFOAM: The Open Source CFD Toolbox
   \\    /   O peration     | Website:  https://openfoam.org
    \\  /    A nd           | Version:  7
     \\/     M anipulation  |
\*---------------------------------------------------------------------------*/
FoamFile
{
    version     2.0;
    format      ascii;
    class       volScalarField;
    location    "0.07";
    object      pDyn;
}
// * * * * * * * * * * * * * * * * * * * * * * * * * * * * * * * * * * * * * //

dimensions      [1 -1 -2 0 0 0 0];

internalField   nonuniform List<scalar> 
27
(
1.585192618
1.63649563
1.585192624
1.627178694
1.67919579
1.627178952
1.569277178
1.620810791
1.569277451
1.383015836
1.445650199
1.383015366
1.421922148
1.485787438
1.421922589
1.342186647
1.404854311
1.342186458
1.300711024
1.37621692
1.300709233
1.30915825
1.386176972
1.309158693
1.180406059
1.254584858
1.180404769
)
;

boundaryField
{
    inlet
    {
        type            calculated;
        value           nonuniform 0();
    }
    outlet
    {
        type            calculated;
        value           nonuniform List<scalar> 9(1.300708525 1.309156128 1.180404546 1.37621426 1.386174711 1.254583239 1.300706733 1.309156571 1.180403256);
    }
    walls
    {
        type            calculated;
        value           uniform 0;
    }
    procBoundary1to0
    {
        type            processor;
        value           nonuniform List<scalar> 9(1.833610798 1.872078139 1.833611098 1.87028792 1.909072644 1.870287959 1.830586375 1.869263088 1.830586613);
    }
}


// ************************************************************************* //
