/*--------------------------------*- C++ -*----------------------------------*\
  =========                 |
  \\      /  F ield         | OpenFOAM: The Open Source CFD Toolbox
   \\    /   O peration     | Website:  https://openfoam.org
    \\  /    A nd           | Version:  7
     \\/     M anipulation  |
\*---------------------------------------------------------------------------*/
FoamFile
{
    version     2.0;
    format      ascii;
    class       surfaceScalarField;
    location    "0.07";
    object      phi;
}
// * * * * * * * * * * * * * * * * * * * * * * * * * * * * * * * * * * * * * //

dimensions      [0 3 -1 0 0 0 0];

internalField   nonuniform List<scalar> 
54
(
5.595428313e-08
-3.476710724e-08
2.526984045e-05
-5.595288665e-08
-3.352647454e-08
2.57642595e-05
-3.47669027e-08
2.526984136e-05
5.638390376e-08
-1.391150052e-07
2.563189854e-05
-5.638234363e-08
-1.384444964e-07
2.61279186e-05
-1.391155085e-07
2.563189904e-05
5.654633549e-08
2.502813539e-05
-5.654453689e-08
2.552887949e-05
2.502813465e-05
5.034354096e-08
-1.403693699e-07
2.428185107e-05
-5.034723559e-08
-1.37437954e-07
2.489624732e-05
-1.403678916e-07
2.428184674e-05
5.071388855e-08
-2.328839068e-07
2.457690885e-05
-5.07119936e-08
-2.306064609e-07
2.519699219e-05
-2.328840718e-07
2.457691133e-05
5.079634883e-08
2.368358765e-05
-5.079759014e-08
2.431052247e-05
2.368358628e-05
3.410391704e-08
-3.807834223e-07
-3.410763537e-08
-3.738932605e-07
-3.807838105e-07
3.380827385e-08
-4.511480565e-07
-3.380857811e-08
-4.447245004e-07
-4.511488531e-07
3.321051933e-08
-3.321358288e-08
)
;

boundaryField
{
    inlet
    {
        type            calculated;
        value           nonuniform 0();
    }
    outlet
    {
        type            calculated;
        value           nonuniform List<scalar> 9(2.427213255e-05 2.425151941e-05 2.285238647e-05 2.497124291e-05 2.496258709e-05 2.35744937e-05 2.427212558e-05 2.425152182e-05 2.28523802e-05);
    }
    walls
    {
        type            calculated;
        value           uniform 0;
    }
    procBoundary1to0
    {
        type            processor;
        value           nonuniform List<scalar> 9(-2.70015886e-05 -2.736590283e-05 -2.700158695e-05 -2.732525361e-05 -2.768933049e-05 -2.732525483e-05 -2.692377464e-05 -2.729099952e-05 -2.692377662e-05);
    }
}


// ************************************************************************* //
