/*--------------------------------*- C++ -*----------------------------------*\
  =========                 |
  \\      /  F ield         | OpenFOAM: The Open Source CFD Toolbox
   \\    /   O peration     | Website:  https://openfoam.org
    \\  /    A nd           | Version:  7
     \\/     M anipulation  |
\*---------------------------------------------------------------------------*/
FoamFile
{
    version     2.0;
    format      ascii;
    class       surfaceScalarField;
    location    "0.07";
    object      rhoPhi;
}
// * * * * * * * * * * * * * * * * * * * * * * * * * * * * * * * * * * * * * //

dimensions      [1 0 -1 0 0 0 0];

internalField   nonuniform List<scalar> 
54
(
6.452085053e-08
-4.008984361e-08
2.908877106e-05
-6.451924041e-08
-3.866200876e-08
2.966100305e-05
-4.008960794e-08
2.90887722e-05
6.502056299e-08
-1.604123666e-07
2.950822322e-05
-6.501876402e-08
-1.596505861e-07
3.008214009e-05
-1.604129476e-07
2.950822391e-05
6.520299909e-08
2.880980609e-05
-6.52009253e-08
2.93893369e-05
2.880980533e-05
5.785845799e-08
-1.613208488e-07
2.786523341e-05
-5.786270418e-08
-1.579723484e-07
2.857506265e-05
-1.613191503e-07
2.78652284e-05
5.829030899e-08
-2.676384561e-07
2.820730872e-05
-5.828813104e-08
-2.650558686e-07
2.892354962e-05
-2.676386465e-07
2.820731165e-05
5.837649855e-08
2.717654934e-05
-5.837792517e-08
2.79007547e-05
2.717654776e-05
3.908539624e-08
-4.363895219e-07
-3.90896576e-08
-4.285767588e-07
-4.363899661e-07
3.875163263e-08
-5.169998181e-07
-3.875198142e-08
-5.097401154e-07
-5.170007307e-07
3.80572773e-08
-3.806078788e-08
)
;

boundaryField
{
    inlet
    {
        type            calculated;
        value           nonuniform 0();
    }
    outlet
    {
        type            calculated;
        value           nonuniform List<scalar> 9(2.781467744e-05 2.779482112e-05 2.618472166e-05 2.86215336e-05 2.861523129e-05 2.701773557e-05 2.781466931e-05 2.779482395e-05 2.618471439e-05);
    }
    walls
    {
        type            calculated;
        value           uniform 0;
    }
    procBoundary1to0
    {
        type            processor;
        value           nonuniform List<scalar> 9(-3.120081267e-05 -3.162337433e-05 -3.120081085e-05 -3.157636603e-05 -3.19984656e-05 -3.157636751e-05 -3.111081352e-05 -3.153675456e-05 -3.111081589e-05);
    }
}


// ************************************************************************* //
