/*--------------------------------*- C++ -*----------------------------------*\
  =========                 |
  \\      /  F ield         | OpenFOAM: The Open Source CFD Toolbox
   \\    /   O peration     | Website:  https://openfoam.org
    \\  /    A nd           | Version:  7
     \\/     M anipulation  |
\*---------------------------------------------------------------------------*/
FoamFile
{
    version     2.0;
    format      ascii;
    class       volVectorField::Internal;
    location    "0.07";
    object      steelCloud:UTrans;
}
// * * * * * * * * * * * * * * * * * * * * * * * * * * * * * * * * * * * * * //

dimensions      [1 1 -1 0 0 0 0];

value           nonuniform List<vector> 
27
(
(-4.051998888e-08 -1.323044113e-15 -1.858434122e-10)
(-4.056403617e-08 -1.32448233e-15 -1.860454334e-10)
(-4.051998888e-08 -1.323044113e-15 -1.858434122e-10)
(-4.056403617e-08 -1.32448233e-15 -1.860454334e-10)
(-4.061192497e-08 -1.326045978e-15 -1.862650736e-10)
(-4.056403617e-08 -1.32448233e-15 -1.860454334e-10)
(-4.051998888e-08 -1.323044113e-15 -1.858434122e-10)
(-4.056403617e-08 -1.32448233e-15 -1.860454334e-10)
(-4.051998888e-08 -1.323044113e-15 -1.858434122e-10)
(-3.207774132e-08 -1.04739088e-15 -1.471233598e-10)
(-3.209650516e-08 -1.04800355e-15 -1.472094194e-10)
(-3.207774132e-08 -1.04739088e-15 -1.471233598e-10)
(-3.209650516e-08 -1.04800355e-15 -1.472094194e-10)
(-3.211637095e-08 -1.048652201e-15 -1.473005331e-10)
(-3.209650516e-08 -1.048003551e-15 -1.472094194e-10)
(-3.207774132e-08 -1.04739088e-15 -1.471233598e-10)
(-3.209650516e-08 -1.048003551e-15 -1.472094194e-10)
(-3.207774132e-08 -1.04739088e-15 -1.471233598e-10)
(-2.735572663e-08 -8.932093538e-16 -1.254660161e-10)
(-2.736433557e-08 -8.934904497e-16 -1.255055007e-10)
(-2.735572663e-08 -8.932093538e-16 -1.254660161e-10)
(-2.736433557e-08 -8.934904497e-16 -1.255055007e-10)
(-2.737326699e-08 -8.937820756e-16 -1.255464644e-10)
(-2.736433557e-08 -8.934904498e-16 -1.255055007e-10)
(-2.735572663e-08 -8.932093538e-16 -1.254660161e-10)
(-2.736433557e-08 -8.934904498e-16 -1.255055007e-10)
(-2.735572663e-08 -8.932093538e-16 -1.254660161e-10)
)
;


// ************************************************************************* //
