/*--------------------------------*- C++ -*----------------------------------*\
  =========                 |
  \\      /  F ield         | OpenFOAM: The Open Source CFD Toolbox
   \\    /   O peration     | Website:  https://openfoam.org
    \\  /    A nd           | Version:  7
     \\/     M anipulation  |
\*---------------------------------------------------------------------------*/
FoamFile
{
    version     2.0;
    format      ascii;
    class       volVectorField;
    location    "0.07";
    object      U;
}
// * * * * * * * * * * * * * * * * * * * * * * * * * * * * * * * * * * * * * //

dimensions      [0 1 -1 0 0 0 0];

internalField   nonuniform List<vector> 
27
(
(1.657845381 0.005064358188 -0.03189828127)
(1.684422205 -8.524676784e-08 -0.03192337645)
(1.657845344 -0.00506397512 -0.03189830619)
(1.679830893 0.00504744009 0.01699469417)
(1.706429931 -9.859323081e-08 0.01725061589)
(1.679830934 -0.005047069532 0.01699465958)
(1.649260194 0.004934283708 -0.04275737123)
(1.676089688 -8.950112367e-08 -0.04288558076)
(1.649260283 -0.004933905064 -0.04275737228)
(1.550772095 0.005431268932 -0.04376789758)
(1.585446316 -4.575016676e-07 -0.04373324175)
(1.550772002 -0.00543084036 -0.04376768971)
(1.572900551 0.005374565408 0.01643800453)
(1.607759175 -2.110750881e-07 0.01690788986)
(1.572900676 -0.005373891948 0.01643807886)
(1.527352365 0.005179164814 -0.05528005043)
(1.562561873 -3.407046542e-07 -0.05539345171)
(1.527352335 -0.005178615741 -0.05528019396)
(1.505432288 0.005095251984 -0.06014795648)
(1.548461047 -6.53204811e-07 -0.06000477993)
(1.505431873 -0.005094454828 -0.0601478793)
(1.511423714 0.004976238455 0.006254664674)
(1.5551279 -4.951596588e-07 0.007119691172)
(1.511423858 -0.004975281491 0.006254638642)
(1.433563092 0.004707677873 -0.0717640289)
(1.47790958 -6.28996167e-07 -0.07176007466)
(1.433562753 -0.004706834077 -0.07176420013)
)
;

boundaryField
{
    inlet
    {
        type            interstitialInletVelocity;
        inletVelocity   nonuniform 0();
        value           nonuniform 0();
    }
    outlet
    {
        type            pressureInletOutletVelocity;
        phi             alphaRhoPhi;
        value           nonuniform List<vector> 9((1.505432288 0.005095251984 -0.06014795648) (1.511423714 0.004976238455 0.006254664674) (1.433563092 0.004707677873 -0.0717640289) (1.548461047 -6.53204811e-07 -0.06000477993) (1.5551279 -4.951596588e-07 0.007119691172) (1.47790958 -6.28996167e-07 -0.07176007466) (1.505431873 -0.005094454828 -0.0601478793) (1.511423858 -0.004975281491 0.006254638642) (1.433562753 -0.004706834077 -0.07176420013));
    }
    walls
    {
        type            noSlip;
    }
    procBoundary1to0
    {
        type            processor;
        value           nonuniform List<vector> 9((1.779422852 0.004182088924 -0.02278614018) (1.797979694 2.669172323e-09 -0.02283157515) (1.779422921 -0.004181888048 -0.02278610496) (1.797207813 0.004172018611 0.01332709479) (1.815738552 4.483396694e-08 0.01346079152) (1.79720778 -0.004171773556 0.01332704724) (1.777813719 0.004113748995 -0.03173409839) (1.796486414 -2.819366979e-08 -0.03183190257) (1.777813765 -0.00411357916 -0.031734175));
    }
}


// ************************************************************************* //
