/*--------------------------------*- C++ -*----------------------------------*\
  =========                 |
  \\      /  F ield         | OpenFOAM: The Open Source CFD Toolbox
   \\    /   O peration     | Website:  https://openfoam.org
    \\  /    A nd           | Version:  7
     \\/     M anipulation  |
\*---------------------------------------------------------------------------*/
FoamFile
{
    version     2.0;
    format      ascii;
    class       surfaceScalarField;
    location    "0.015";
    object      alphaRhoPhi;
}
// * * * * * * * * * * * * * * * * * * * * * * * * * * * * * * * * * * * * * //

dimensions      [1 0 -1 0 0 0 0];

internalField   nonuniform List<scalar> 
117
(
2.413517564e-08
2.724380322e-08
2.301637302e-05
-2.417382341e-08
2.645455691e-08
2.308966379e-05
2.70513671e-08
2.301652837e-05
2.336930811e-08
-2.084995194e-08
2.309253063e-05
-2.358177641e-08
-2.034571282e-08
2.316161932e-05
-2.094164022e-08
2.309221494e-05
2.404800712e-08
2.302283744e-05
-2.436042941e-08
2.309585573e-05
2.302243097e-05
2.802314563e-08
1.410080561e-08
2.268653197e-05
-2.808964861e-08
1.428581653e-08
2.284408081e-05
1.450275088e-08
2.268622182e-05
2.840422326e-08
-4.19481638e-08
2.283279464e-05
-2.766210868e-08
-4.167339179e-08
2.298661833e-05
-4.158962752e-08
2.283326288e-05
2.850748013e-08
2.266470972e-05
-2.783407544e-08
2.28231589e-05
2.266533124e-05
3.571648107e-08
5.631885964e-09
2.225976912e-05
-3.521047267e-08
5.532826455e-09
2.252411148e-05
5.276516865e-09
2.22603229e-05
3.574553696e-08
-6.514629535e-08
2.248261763e-05
-3.584686843e-08
-6.573634675e-08
2.27443734e-05
-6.549456984e-08
2.248297414e-05
3.551800144e-08
2.217892439e-05
-3.569209672e-08
2.244355846e-05
2.217902022e-05
3.73287217e-08
-5.83076252e-09
2.17946434e-05
-3.803229636e-08
-5.303305987e-09
2.217050132e-05
-5.645556842e-09
2.179431012e-05
3.806921577e-08
-8.092557628e-08
2.208570157e-05
-3.850465089e-08
-8.148136539e-08
2.246258888e-05
-8.073108043e-08
2.208561109e-05
3.762004635e-08
2.162739168e-05
-3.795500867e-08
2.20040162e-05
2.16273437e-05
3.5595191e-08
-5.70644082e-08
2.137788094e-05
-3.519952289e-08
-5.655701246e-08
2.185813244e-05
-5.717876259e-08
2.137805835e-05
3.585800871e-08
-1.225740279e-07
2.167610272e-05
-3.563541344e-08
-1.228562505e-07
2.215969195e-05
-1.226343829e-07
2.167617966e-05
3.537146949e-08
2.103211986e-05
-3.515093621e-08
2.151285818e-05
2.103223052e-05
2.493029812e-08
-2.225118893e-07
-2.513723537e-08
-2.216718615e-07
-2.225458165e-07
2.52531061e-08
-2.740337165e-07
-2.551025239e-08
-2.743636083e-07
-2.74087957e-07
2.454981126e-08
-2.482908345e-08
)
;

boundaryField
{
    inlet
    {
        type            calculated;
        value           nonuniform List<scalar> 9(-2.321008707e-05 -2.321007622e-05 -2.321006867e-05 -2.321008544e-05 -2.321007442e-05 -2.321006681e-05 -2.321008701e-05 -2.321007591e-05 -2.321006836e-05);
    }
    outlet
    {
        type            calculated;
        value           nonuniform List<scalar> 9(2.116560962e-05 2.129104939e-05 2.03250279e-05 2.171783444e-05 2.184967595e-05 2.087716287e-05 2.116561352e-05 2.129088901e-05 2.032480529e-05);
    }
    walls
    {
        type            calculated;
        value           uniform 0;
    }
}


// ************************************************************************* //
