/*--------------------------------*- C++ -*----------------------------------*\
  =========                 |
  \\      /  F ield         | OpenFOAM: The Open Source CFD Toolbox
   \\    /   O peration     | Website:  https://openfoam.org
    \\  /    A nd           | Version:  7
     \\/     M anipulation  |
\*---------------------------------------------------------------------------*/
FoamFile
{
    version     2.0;
    format      ascii;
    class       volScalarField;
    location    "0.015";
    object      kappaavg;
}
// * * * * * * * * * * * * * * * * * * * * * * * * * * * * * * * * * * * * * //

dimensions      [1 1 -3 -1 0 0 0];

internalField   nonuniform List<scalar> 
54
(
0.02845657444
0.02845657408
0.02845657444
0.02845657401
0.02845657365
0.02845657401
0.0284565743
0.02845657394
0.0284565743
0.02853891128
0.02853891066
0.02853891128
0.02853891039
0.02853890977
0.02853891039
0.02853891072
0.02853891011
0.02853891072
0.0286770835
0.02867708254
0.0286770835
0.02867708191
0.02867708095
0.02867708191
0.02867708222
0.02867708126
0.02867708222
0.02883055087
0.02883054964
0.02883055087
0.02883054873
0.0288305475
0.02883054873
0.02883054905
0.02883054782
0.02883054905
0.02895889822
0.02895889684
0.02895889822
0.02895889601
0.02895889463
0.02895889601
0.02895889654
0.02895889516
0.02895889654
0.02903129809
0.02903129666
0.02903129809
0.02903129608
0.02903129465
0.02903129608
0.02903129689
0.02903129546
0.02903129689
)
;

boundaryField
{
    inlet
    {
        type            calculated;
        value           uniform 0.02688265352;
    }
    outlet
    {
        type            calculated;
        value           nonuniform List<scalar> 9(0.02959886511 0.0295962882 0.02959915607 0.02959607536 0.02959346752 0.02959636358 0.02959886469 0.02959628814 0.0295991564);
    }
    walls
    {
        type            calculated;
        value           nonuniform List<scalar> 
72
(
0.02747600725
0.02816562667
0.02872514758
0.02912819818
0.02940730098
0.02959886511
0.02747636341
0.02816461534
0.02872286389
0.02912527497
0.02940434507
0.02959607536
0.02747600725
0.02816562753
0.02872514624
0.0291281966
0.0294073002
0.02959886469
0.02747600566
0.0281657717
0.02872517306
0.02912780281
0.02940698517
0.02959915607
0.02747636181
0.02816475662
0.02872288008
0.02912486784
0.02940401868
0.02959636358
0.02747600566
0.02816577093
0.02872517408
0.02912780398
0.02940698578
0.0295991564
0.02747600725
0.0274763626
0.02747600566
0.02816562753
0.0281646861
0.02816577093
0.02872514624
0.02872287177
0.02872517408
0.0291281966
0.02912507176
0.02912780398
0.0294073002
0.02940418665
0.02940698578
0.02959886469
0.02959628814
0.0295991564
0.02747600725
0.0274763626
0.02747600566
0.02816562667
0.02816468612
0.0281657717
0.02872514758
0.02872287165
0.02872517306
0.02912819818
0.02912507174
0.02912780281
0.02940730098
0.02940418666
0.02940698517
0.02959886511
0.0295962882
0.02959915607
)
;
    }
}


// ************************************************************************* //
