/*--------------------------------*- C++ -*----------------------------------*\
  =========                 |
  \\      /  F ield         | OpenFOAM: The Open Source CFD Toolbox
   \\    /   O peration     | Website:  https://openfoam.org
    \\  /    A nd           | Version:  7
     \\/     M anipulation  |
\*---------------------------------------------------------------------------*/
FoamFile
{
    version     2.0;
    format      ascii;
    class       volScalarField;
    location    "0.015";
    object      muavg;
}
// * * * * * * * * * * * * * * * * * * * * * * * * * * * * * * * * * * * * * //

dimensions      [1 -1 -1 0 0 0 0];

internalField   nonuniform List<scalar> 
54
(
1.940539666e-05
1.940539642e-05
1.940539666e-05
1.940539637e-05
1.940539613e-05
1.940539637e-05
1.940539657e-05
1.940539633e-05
1.940539657e-05
1.946024887e-05
1.946024846e-05
1.946024887e-05
1.946024828e-05
1.946024787e-05
1.946024828e-05
1.94602485e-05
1.946024809e-05
1.94602485e-05
1.955228234e-05
1.95522817e-05
1.955228234e-05
1.955228128e-05
1.955228065e-05
1.955228128e-05
1.955228149e-05
1.955228085e-05
1.955228149e-05
1.965448091e-05
1.965448009e-05
1.965448091e-05
1.965447949e-05
1.965447867e-05
1.965447949e-05
1.96544797e-05
1.965447888e-05
1.96544797e-05
1.97399331e-05
1.973993218e-05
1.97399331e-05
1.973993163e-05
1.973993072e-05
1.973993163e-05
1.973993198e-05
1.973993106e-05
1.973993198e-05
1.978812871e-05
1.978812776e-05
1.978812871e-05
1.978812737e-05
1.978812642e-05
1.978812737e-05
1.978812791e-05
1.978812696e-05
1.978812791e-05
)
;

boundaryField
{
    inlet
    {
        type            calculated;
        value           uniform 1.835366622e-05;
    }
    outlet
    {
        type            calculated;
        value           nonuniform List<scalar> 9(2.016550096e-05 2.016379279e-05 2.016569383e-05 2.016365169e-05 2.0161923e-05 2.016384275e-05 2.016550068e-05 2.016379275e-05 2.016569405e-05);
    }
    walls
    {
        type            calculated;
        value           nonuniform List<scalar> 
72
(
1.875128051e-05
1.921217877e-05
1.958510494e-05
1.985314723e-05
2.003845801e-05
2.016550096e-05
1.875151889e-05
1.921150386e-05
1.958358477e-05
1.985120504e-05
2.003649676e-05
2.016365169e-05
1.875128051e-05
1.921217935e-05
1.958510405e-05
1.985314619e-05
2.00384575e-05
2.016550068e-05
1.875127945e-05
1.921227555e-05
1.95851219e-05
1.985288455e-05
2.003824847e-05
2.016569383e-05
1.875151782e-05
1.921159815e-05
1.958359555e-05
1.985093454e-05
2.003628019e-05
2.016384275e-05
1.875127944e-05
1.921227504e-05
1.958512258e-05
1.985288532e-05
2.003824888e-05
2.016569405e-05
1.875128051e-05
1.875151835e-05
1.875127944e-05
1.921217935e-05
1.921155108e-05
1.921227504e-05
1.958510405e-05
1.958359002e-05
1.958512258e-05
1.985314619e-05
1.985107003e-05
1.985288532e-05
2.00384575e-05
2.003639164e-05
2.003824888e-05
2.016550068e-05
2.016379275e-05
2.016569405e-05
1.875128051e-05
1.875151835e-05
1.875127945e-05
1.921217877e-05
1.921155109e-05
1.921227555e-05
1.958510494e-05
1.958358994e-05
1.95851219e-05
1.985314723e-05
1.985107001e-05
1.985288455e-05
2.003845801e-05
2.003639165e-05
2.003824847e-05
2.016550096e-05
2.016379279e-05
2.016569383e-05
)
;
    }
}


// ************************************************************************* //
