/*--------------------------------*- C++ -*----------------------------------*\
  =========                 |
  \\      /  F ield         | OpenFOAM: The Open Source CFD Toolbox
   \\    /   O peration     | Website:  https://openfoam.org
    \\  /    A nd           | Version:  7
     \\/     M anipulation  |
\*---------------------------------------------------------------------------*/
FoamFile
{
    version     2.0;
    format      ascii;
    class       volScalarField;
    location    "0.015";
    object      p;
}
// * * * * * * * * * * * * * * * * * * * * * * * * * * * * * * * * * * * * * //

dimensions      [1 -1 -2 0 0 0 0];

internalField   nonuniform List<scalar> 
54
(
101324.2511
101324.2442
101324.2512
101324.2023
101324.1955
101324.2024
101324.1682
101324.1612
101324.1683
101322.2192
101322.2149
101322.2194
101322.1703
101322.166
101322.1707
101322.1309
101322.1266
101322.1313
101321.3587
101321.3548
101321.3593
101321.3086
101321.3044
101321.309
101321.2675
101321.2633
101321.2677
101321.9027
101321.8996
101321.9029
101321.855
101321.8519
101321.8554
101321.8145
101321.8112
101321.8148
101323.0596
101323.0587
101323.0599
101323.0191
101323.0179
101323.0194
101322.9813
101322.9802
101322.9816
101324.3368
101324.3389
101324.337
101324.3111
101324.3132
101324.3112
101324.2806
101324.2824
101324.2807
)
;

boundaryField
{
    inlet
    {
        type            zeroGradient;
    }
    outlet
    {
        type            totalPressure;
        rho             rho;
        psi             none;
        gamma           1;
        p0              uniform 101325;
        value           uniform 101325;
    }
    walls
    {
        type            zeroGradient;
    }
}


// ************************************************************************* //
