/*--------------------------------*- C++ -*----------------------------------*\
  =========                 |
  \\      /  F ield         | OpenFOAM: The Open Source CFD Toolbox
   \\    /   O peration     | Website:  https://openfoam.org
    \\  /    A nd           | Version:  7
     \\/     M anipulation  |
\*---------------------------------------------------------------------------*/
FoamFile
{
    version     2.0;
    format      ascii;
    class       surfaceScalarField;
    location    "0.015";
    object      rhoPhi;
}
// * * * * * * * * * * * * * * * * * * * * * * * * * * * * * * * * * * * * * //

dimensions      [1 0 -1 0 0 0 0];

internalField   nonuniform List<scalar> 
117
(
3.807387363e-08
4.29778153e-08
3.555004749e-05
-3.813484151e-08
4.178166454e-08
3.570260939e-05
4.267424228e-08
3.555028743e-05
3.690889986e-08
-3.289134693e-08
3.570704227e-05
-3.724446697e-08
-3.21335092e-08
3.585880773e-05
-3.30359876e-08
3.570655413e-05
3.793636301e-08
3.556003214e-05
-3.842921737e-08
3.571218374e-05
3.555940432e-05
4.244298084e-08
2.135663963e-08
3.31079253e-05
-4.254370419e-08
2.166251523e-08
3.336764936e-05
2.196541337e-08
3.310747268e-05
4.307117605e-08
-6.353337831e-08
3.335116398e-05
-4.194585932e-08
-6.319208162e-08
3.361014586e-05
-6.299035047e-08
3.335184793e-05
4.317653874e-08
3.307607867e-05
-4.215662104e-08
3.333708936e-05
3.307698569e-05
5.033373324e-08
7.936779807e-09
3.013817403e-05
-4.962063689e-08
7.802990001e-09
3.051158195e-05
7.435973094e-09
3.013892381e-05
5.041222054e-08
-9.18079316e-08
3.045537361e-05
-5.055512914e-08
-9.270850272e-08
3.082736564e-05
-9.229874017e-08
3.045585654e-05
5.005402424e-08
3.002871592e-05
-5.02993694e-08
3.040246333e-05
3.002884567e-05
4.865500878e-08
-7.599933476e-09
2.753322961e-05
-4.95720622e-08
-6.91481489e-09
2.80144338e-05
-7.358532659e-09
2.753280858e-05
4.963726036e-08
-1.054800284e-07
2.790728165e-05
-5.020501059e-08
-1.062410051e-07
2.839049103e-05
-1.052265186e-07
2.790716732e-05
4.903472722e-08
2.732194007e-05
-4.947132385e-08
2.780406479e-05
2.732187947e-05
4.363442673e-08
-6.995250394e-08
2.57760528e-05
-4.31493963e-08
-6.933993884e-08
2.635760617e-05
-7.009268547e-08
2.577626671e-05
4.396257905e-08
-1.502575851e-07
2.613810583e-05
-4.368967314e-08
-1.506240257e-07
2.672390561e-05
-1.503315713e-07
2.61381986e-05
4.336017733e-08
2.535915667e-05
-4.308983622e-08
2.594125757e-05
2.53592901e-05
2.957675381e-08
-2.639831797e-07
-2.982225958e-08
-2.630023019e-07
-2.640234303e-07
2.996151604e-08
-3.251075349e-07
-3.026660693e-08
-3.255183587e-07
-3.251718847e-07
2.912535262e-08
-2.945667497e-08
)
;

boundaryField
{
    inlet
    {
        type            calculated;
        value           nonuniform List<scalar> 9(-3.65942793e-05 -3.663477021e-05 -3.659425029e-05 -3.663478476e-05 -3.668008097e-05 -3.663475534e-05 -3.659427921e-05 -3.663476971e-05 -3.659424981e-05);
    }
    outlet
    {
        type            calculated;
        value           nonuniform List<scalar> 9(2.510967444e-05 2.525997035e-05 2.411245613e-05 2.576631354e-05 2.592430929e-05 2.476893016e-05 2.510967907e-05 2.525978008e-05 2.411219205e-05);
    }
    walls
    {
        type            calculated;
        value           uniform 0;
    }
}


// ************************************************************************* //
