/*--------------------------------*- C++ -*----------------------------------*\
  =========                 |
  \\      /  F ield         | OpenFOAM: The Open Source CFD Toolbox
   \\    /   O peration     | Website:  https://openfoam.org
    \\  /    A nd           | Version:  7
     \\/     M anipulation  |
\*---------------------------------------------------------------------------*/
FoamFile
{
    version     2.0;
    format      ascii;
    class       volScalarField::Internal;
    location    "0.015";
    object      steelCloud:hsCoeff;
}
// * * * * * * * * * * * * * * * * * * * * * * * * * * * * * * * * * * * * * //

dimensions      [1 2 -2 -1 0 0 0];

value           nonuniform List<scalar> 
54
(
6.905183994e-06
6.918424581e-06
6.905183993e-06
6.918424581e-06
6.933201291e-06
6.918424581e-06
6.905183993e-06
6.918424581e-06
6.905183993e-06
6.407465853e-06
6.421176676e-06
6.407465853e-06
6.421176676e-06
6.437001741e-06
6.421176676e-06
6.407465853e-06
6.421176676e-06
6.407465853e-06
5.478106621e-06
5.487505499e-06
5.47810662e-06
5.487505499e-06
5.498059019e-06
5.487505499e-06
5.47810662e-06
5.487505499e-06
5.478106621e-06
4.392586397e-06
4.397361362e-06
4.392586397e-06
4.397361362e-06
4.402552767e-06
4.397361362e-06
4.392586397e-06
4.397361362e-06
4.392586397e-06
3.477401008e-06
3.47943511e-06
3.477401008e-06
3.47943511e-06
3.481588669e-06
3.47943511e-06
3.477401008e-06
3.47943511e-06
3.477401008e-06
2.965509024e-06
2.966442279e-06
2.965509024e-06
2.966442279e-06
2.967410495e-06
2.966442279e-06
2.965509024e-06
2.966442279e-06
2.965509024e-06
)
;


// ************************************************************************* //
