/*--------------------------------*- C++ -*----------------------------------*\
  =========                 |
  \\      /  F ield         | OpenFOAM: The Open Source CFD Toolbox
   \\    /   O peration     | Website:  https://openfoam.org
    \\  /    A nd           | Version:  7
     \\/     M anipulation  |
\*---------------------------------------------------------------------------*/
FoamFile
{
    version     2.0;
    format      ascii;
    class       volVectorField::Internal;
    location    "0.015";
    object      steelCloud:UTrans;
}
// * * * * * * * * * * * * * * * * * * * * * * * * * * * * * * * * * * * * * //

dimensions      [1 1 -1 0 0 0 0];

value           nonuniform List<vector> 
54
(
(-1.181586697e-07 1.319163606e-12 -3.419014875e-10)
(-1.183852372e-07 1.321693082e-12 -3.425570785e-10)
(-1.181586697e-07 1.319163606e-12 -3.419014875e-10)
(-1.183852372e-07 1.321693082e-12 -3.425570785e-10)
(-1.186380902e-07 1.324516019e-12 -3.432887287e-10)
(-1.183852372e-07 1.321693082e-12 -3.425570785e-10)
(-1.181586697e-07 1.319163606e-12 -3.419014875e-10)
(-1.183852372e-07 1.321693082e-12 -3.425570785e-10)
(-1.181586697e-07 1.319163606e-12 -3.419014875e-10)
(-1.096419215e-07 1.22407973e-12 -3.172576007e-10)
(-1.098765355e-07 1.22669904e-12 -3.179364749e-10)
(-1.096419215e-07 1.22407973e-12 -3.172576007e-10)
(-1.098765355e-07 1.22669904e-12 -3.179364749e-10)
(-1.101473275e-07 1.229722254e-12 -3.18720033e-10)
(-1.098765355e-07 1.22669904e-12 -3.179364749e-10)
(-1.096419215e-07 1.22407973e-12 -3.172576007e-10)
(-1.098765355e-07 1.22669904e-12 -3.179364749e-10)
(-1.096419215e-07 1.22407973e-12 -3.172576007e-10)
(-9.373910838e-08 1.046535311e-12 -2.71241549e-10)
(-9.389993812e-08 1.048330869e-12 -2.717069226e-10)
(-9.373910838e-08 1.046535311e-12 -2.71241549e-10)
(-9.389993812e-08 1.048330869e-12 -2.717069226e-10)
(-9.408052561e-08 1.05034701e-12 -2.722294668e-10)
(-9.389993812e-08 1.048330869e-12 -2.717069226e-10)
(-9.373910838e-08 1.046535311e-12 -2.71241549e-10)
(-9.389993812e-08 1.048330869e-12 -2.717069226e-10)
(-9.373910838e-08 1.046535311e-12 -2.71241549e-10)
(-7.516413258e-08 8.391579594e-13 -2.174933824e-10)
(-7.524583983e-08 8.400701668e-13 -2.177298088e-10)
(-7.516413258e-08 8.391579594e-13 -2.174933824e-10)
(-7.524583983e-08 8.400701668e-13 -2.177298088e-10)
(-7.533467302e-08 8.410619308e-13 -2.179868547e-10)
(-7.524583983e-08 8.400701668e-13 -2.177298088e-10)
(-7.516413258e-08 8.391579594e-13 -2.174933824e-10)
(-7.524583983e-08 8.400701668e-13 -2.177298088e-10)
(-7.516413258e-08 8.391579594e-13 -2.174933824e-10)
(-5.950385645e-08 6.643213064e-13 -1.721791307e-10)
(-5.953866316e-08 6.647099004e-13 -1.722798467e-10)
(-5.950385645e-08 6.643213064e-13 -1.721791307e-10)
(-5.953866316e-08 6.647099004e-13 -1.722798467e-10)
(-5.957551398e-08 6.651213155e-13 -1.723864774e-10)
(-5.953866316e-08 6.647099004e-13 -1.722798467e-10)
(-5.950385645e-08 6.643213064e-13 -1.721791307e-10)
(-5.953866316e-08 6.647099004e-13 -1.722798467e-10)
(-5.950385645e-08 6.643213064e-13 -1.721791307e-10)
(-5.074457126e-08 5.665296652e-13 -1.468334439e-10)
(-5.076054075e-08 5.66707954e-13 -1.468796529e-10)
(-5.074457126e-08 5.665296652e-13 -1.468334439e-10)
(-5.076054075e-08 5.66707954e-13 -1.468796529e-10)
(-5.077710845e-08 5.668929215e-13 -1.469275928e-10)
(-5.076054075e-08 5.66707954e-13 -1.468796529e-10)
(-5.074457126e-08 5.665296652e-13 -1.468334439e-10)
(-5.076054075e-08 5.66707954e-13 -1.468796529e-10)
(-5.074457126e-08 5.665296652e-13 -1.468334439e-10)
)
;


// ************************************************************************* //
