/*--------------------------------*- C++ -*----------------------------------*\
  =========                 |
  \\      /  F ield         | OpenFOAM: The Open Source CFD Toolbox
   \\    /   O peration     | Website:  https://openfoam.org
    \\  /    A nd           | Version:  7
     \\/     M anipulation  |
\*---------------------------------------------------------------------------*/
FoamFile
{
    version     2.0;
    format      ascii;
    class       volVectorField;
    location    "0.015";
    object      Uavg;
}
// * * * * * * * * * * * * * * * * * * * * * * * * * * * * * * * * * * * * * //

dimensions      [0 1 -1 0 0 0 0];

internalField   nonuniform List<vector> 
54
(
(1.75248896 4.195076669e-05 -0.01147695415)
(1.752493459 -3.360845922e-06 -0.01147700511)
(1.75248901 -4.867044447e-05 -0.01147699473)
(1.752435654 4.193640706e-05 -0.01151320113)
(1.752440161 -3.377744234e-06 -0.01151324322)
(1.752435719 -4.868971934e-05 -0.01151323244)
(1.752373439 4.192929191e-05 -0.01156946214)
(1.752377954 -3.392040844e-06 -0.01156949905)
(1.752373518 -4.871117246e-05 -0.01156948398)
(1.767261822 3.751251184e-05 -0.0121123055)
(1.767266402 -3.369302058e-06 -0.01211235718)
(1.767261854 -4.424808743e-05 -0.01211234842)
(1.76718746 3.749621813e-05 -0.0121442019)
(1.767192047 -3.387410702e-06 -0.01214424557)
(1.767187506 -4.426767721e-05 -0.01214423542)
(1.767104024 3.748529329e-05 -0.01219573135)
(1.767108619 -3.402658527e-06 -0.01219577085)
(1.767104083 -4.428712204e-05 -0.01219575503)
(1.809041582 3.130808577e-05 -0.01339132744)
(1.809046601 -3.304328672e-06 -0.0133913782)
(1.809041604 -3.791350635e-05 -0.01339136411)
(1.808922037 3.129413489e-05 -0.01341708469)
(1.808927061 -3.319672278e-06 -0.01341712988)
(1.808922069 -3.793014103e-05 -0.01341711369)
(1.808792572 3.12814277e-05 -0.0134618868)
(1.808797602 -3.333025013e-06 -0.01346193063)
(1.808792613 -3.794412697e-05 -0.01346190801)
(1.887221622 2.659051892e-05 -0.01519313623)
(1.88722871 -3.157690024e-06 -0.01519320036)
(1.88722165 -3.290402177e-05 -0.01519316914)
(1.887031935 2.657858672e-05 -0.01521198081)
(1.887039029 -3.171576193e-06 -0.01521203945)
(1.887031968 -3.291954274e-05 -0.01521200735)
(1.886828298 2.656480766e-05 -0.01525379073)
(1.886835393 -3.183716113e-06 -0.01525385203)
(1.886828335 -3.292983725e-05 -0.01525381038)
(1.981531201 2.409953126e-05 -0.01706445635)
(1.981541298 -3.028142457e-06 -0.01706453651)
(1.981531241 -3.015367202e-05 -0.01706447362)
(1.981259097 2.40970513e-05 -0.01707713933)
(1.981269199 -3.03446189e-06 -0.01707721297)
(1.98125914 -3.016372487e-05 -0.01707715151)
(1.980967194 2.408970455e-05 -0.01712005582)
(1.980977294 -3.03957004e-06 -0.01712013743)
(1.980967239 -3.016655603e-05 -0.01712006278)
(2.046231319 2.266906271e-05 -0.01828767235)
(2.046243346 -2.949774804e-06 -0.01828776325)
(2.046231373 -2.856652863e-05 -0.0182876738)
(2.045898296 2.26766726e-05 -0.0182968296)
(2.045910327 -2.948333058e-06 -0.01829691227)
(2.045898352 -2.857140199e-05 -0.01829682688)
(2.045541767 2.268015707e-05 -0.01834062667)
(2.045553794 -2.946129288e-06 -0.01834071933)
(2.045541824 -2.857065369e-05 -0.0183406201)
)
;

boundaryField
{
    inlet
    {
        type            interstitialInletVelocity;
        inletVelocity   uniform (1.23 0 0);
        value           uniform (1.23 0 0);
    }
    outlet
    {
        type            pressureInletOutletVelocity;
        phi             alphaRhoPhi;
        value           nonuniform List<vector> 9((3.061933183 0.0003172242308 -0.05354989883) (3.059162477 0.0003235635261 -0.01506815455) (2.999368016 0.0003439841265 -0.05451987928) (3.091314118 -2.778676268e-06 -0.05396938814) (3.088735191 1.554903033e-06 -0.01496186847) (3.028695173 5.279105113e-06 -0.05493625019) (3.06194428 -0.0003199613752 -0.0535460856) (3.059174297 -0.0003220394988 -0.01506021525) (2.999373379 -0.0003387956522 -0.05451589771));
    }
    walls
    {
        type            noSlip;
    }
}


// ************************************************************************* //
