/*--------------------------------*- C++ -*----------------------------------*\
  =========                 |
  \\      /  F ield         | OpenFOAM: The Open Source CFD Toolbox
   \\    /   O peration     | Website:  https://openfoam.org
    \\  /    A nd           | Version:  7
     \\/     M anipulation  |
\*---------------------------------------------------------------------------*/
FoamFile
{
    version     2.0;
    format      ascii;
    class       volScalarField;
    location    "0.08";
    object      alpha;
}
// * * * * * * * * * * * * * * * * * * * * * * * * * * * * * * * * * * * * * //

dimensions      [0 0 0 0 0 0 0];

internalField   nonuniform List<scalar> 
54
(
0.6342545205
0.633553209
0.6342545205
0.633553209
0.632770534
0.633553209
0.6342545205
0.633553209
0.6342545205
0.6606170563
0.6598908379
0.6606170563
0.6598908379
0.6590526349
0.6598908379
0.6606170563
0.6598908379
0.6606170563
0.7098422382
0.7093444097
0.7098422382
0.7093444097
0.7087854235
0.7093444097
0.7098422382
0.7093444097
0.7098422382
0.7673387676
0.767085853
0.7673387676
0.767085853
0.7668108809
0.767085853
0.7673387676
0.767085853
0.7673387676
0.8158132064
0.8157054665
0.8158132064
0.8157054665
0.8155913994
0.8157054665
0.8158132064
0.8157054665
0.8158132064
0.8429264853
0.8428770537
0.8429264853
0.8428770537
0.8428257704
0.8428770537
0.8429264853
0.8428770537
0.8429264852
)
;

boundaryField
{
    inlet
    {
        type            zeroGradient;
    }
    outlet
    {
        type            zeroGradient;
    }
    walls
    {
        type            zeroGradient;
    }
}


// ************************************************************************* //
