/*--------------------------------*- C++ -*----------------------------------*\
  =========                 |
  \\      /  F ield         | OpenFOAM: The Open Source CFD Toolbox
   \\    /   O peration     | Website:  https://openfoam.org
    \\  /    A nd           | Version:  7
     \\/     M anipulation  |
\*---------------------------------------------------------------------------*/
FoamFile
{
    version     2.0;
    format      ascii;
    class       volScalarField;
    location    "0.08";
    object      kappaavg;
}
// * * * * * * * * * * * * * * * * * * * * * * * * * * * * * * * * * * * * * //

dimensions      [1 1 -3 -1 0 0 0];

internalField   nonuniform List<scalar> 
54
(
0.02726780854
0.02726780849
0.02726780854
0.02726780987
0.02726780982
0.02726780987
0.0272678113
0.02726781125
0.0272678113
0.02728780748
0.02728780726
0.02728780748
0.02728780976
0.02728780955
0.02728780976
0.02728781246
0.02728781225
0.02728781246
0.02732166103
0.02732166048
0.02732166102
0.0273216654
0.02732166486
0.0273216654
0.02732167084
0.02732167029
0.02732167084
0.02735972228
0.02735972128
0.02735972228
0.02735972988
0.02735972889
0.02735972988
0.02735973943
0.02735973843
0.02735973943
0.02739196212
0.02739196065
0.02739196212
0.02739197339
0.02739197192
0.02739197339
0.02739198751
0.02739198602
0.02739198751
0.02741032974
0.02741032795
0.02741032974
0.0274103436
0.0274103418
0.0274103436
0.02741036091
0.0274103591
0.02741036091
)
;

boundaryField
{
    inlet
    {
        type            calculated;
        value           uniform 0.02688265352;
    }
    outlet
    {
        type            calculated;
        value           nonuniform List<scalar> 9(0.02756948137 0.02756621017 0.02757223301 0.02756466903 0.02756161475 0.02756722595 0.0275694813 0.02756621002 0.02757223292);
    }
    walls
    {
        type            calculated;
        value           nonuniform List<scalar> 
72
(
0.02704252523
0.02719135339
0.02731862789
0.0274207028
0.02750137749
0.02756948137
0.02704282628
0.02719145449
0.02731800323
0.02741890493
0.02749814485
0.02756466903
0.02704252523
0.02719135339
0.02731862787
0.02742070268
0.02750137735
0.0275694813
0.02704252492
0.02719122744
0.02731851526
0.02742088998
0.02750236403
0.02757223301
0.02704282595
0.02719132664
0.02731788303
0.02741906654
0.02749905676
0.02756722595
0.02704252492
0.02719122745
0.02731851525
0.02742088987
0.02750236389
0.02757223292
0.02704252523
0.02704282609
0.02704252492
0.02719135339
0.02719138902
0.02719122745
0.02731862787
0.02731793824
0.02731851525
0.02742070268
0.02741899569
0.02742088987
0.02750137735
0.02749868201
0.02750236389
0.0275694813
0.02756621002
0.02757223292
0.02704252523
0.02704282609
0.02704252492
0.02719135339
0.02719138902
0.02719122744
0.02731862789
0.02731793824
0.02731851526
0.0274207028
0.02741899579
0.02742088998
0.02750137749
0.02749868216
0.02750236403
0.02756948137
0.02756621017
0.02757223301
)
;
    }
}


// ************************************************************************* //
