/*--------------------------------*- C++ -*----------------------------------*\
  =========                 |
  \\      /  F ield         | OpenFOAM: The Open Source CFD Toolbox
   \\    /   O peration     | Website:  https://openfoam.org
    \\  /    A nd           | Version:  7
     \\/     M anipulation  |
\*---------------------------------------------------------------------------*/
FoamFile
{
    version     2.0;
    format      ascii;
    class       volScalarField;
    location    "0.08";
    object      p;
}
// * * * * * * * * * * * * * * * * * * * * * * * * * * * * * * * * * * * * * //

dimensions      [1 -1 -2 0 0 0 0];

internalField   nonuniform List<scalar> 
54
(
101329.1376
101329.1308
101329.1376
101329.0704
101329.0638
101329.0704
101329.0177
101329.0109
101329.0177
101327.6069
101327.6024
101327.6069
101327.5401
101327.5356
101327.5401
101327.4834
101327.4787
101327.4834
101326.4406
101326.4363
101326.4406
101326.3748
101326.3703
101326.3748
101326.3191
101326.3145
101326.3191
101325.8557
101325.8525
101325.8557
101325.7955
101325.792
101325.7955
101325.7427
101325.739
101325.7427
101325.5162
101325.5149
101325.5162
101325.467
101325.4655
101325.467
101325.4194
101325.4176
101325.4194
101325.1945
101325.1958
101325.1945
101325.1641
101325.1652
101325.1641
101325.1298
101325.1305
101325.1298
)
;

boundaryField
{
    inlet
    {
        type            zeroGradient;
    }
    outlet
    {
        type            totalPressure;
        rho             rho;
        psi             none;
        gamma           1;
        p0              uniform 101325;
        value           uniform 101325;
    }
    walls
    {
        type            zeroGradient;
    }
}


// ************************************************************************* //
