/*--------------------------------*- C++ -*----------------------------------*\
  =========                 |
  \\      /  F ield         | OpenFOAM: The Open Source CFD Toolbox
   \\    /   O peration     | Website:  https://openfoam.org
    \\  /    A nd           | Version:  7
     \\/     M anipulation  |
\*---------------------------------------------------------------------------*/
FoamFile
{
    version     2.0;
    format      ascii;
    class       surfaceScalarField;
    location    "0.08";
    object      phi;
}
// * * * * * * * * * * * * * * * * * * * * * * * * * * * * * * * * * * * * * //

dimensions      [0 3 -1 0 0 0 0];

internalField   nonuniform List<scalar> 
117
(
3.575738398e-08
4.937474693e-08
3.061485134e-05
-3.57567558e-08
4.87138237e-08
3.075508556e-05
4.937550434e-08
3.061485047e-05
3.523929036e-08
-2.254397545e-08
3.076867518e-05
-3.523762729e-08
-2.200810563e-08
3.091031604e-05
-2.254436371e-08
3.076867521e-05
3.598663836e-08
3.0640898e-05
-3.598549576e-08
3.078167955e-05
3.064089696e-05
4.049858075e-08
2.681148138e-08
2.902959323e-05
-4.049640629e-08
2.65867131e-08
2.92738444e-05
2.681208159e-08
2.902959386e-05
4.045695566e-08
-5.478970416e-08
2.927390738e-05
-4.045446293e-08
-5.468694469e-08
2.951811647e-05
-5.479005018e-08
2.927390565e-05
4.081021111e-08
2.902694782e-05
-4.080763048e-08
2.927249728e-05
2.902694673e-05
5.147648806e-08
1.133304585e-08
2.700142769e-05
-5.147506619e-08
1.176307926e-08
2.736585173e-05
1.133237346e-08
2.70014247e-05
5.18742764e-08
-8.933628697e-08
2.732519273e-05
-5.187207687e-08
-8.93167752e-08
2.768938559e-05
-8.933685719e-08
2.732519287e-05
5.191177948e-08
2.692361064e-05
-5.191135888e-08
2.729095147e-05
2.692361148e-05
5.598791368e-08
-3.473863906e-08
2.526966302e-05
-5.59859408e-08
-3.349555325e-08
2.576427937e-05
-3.473873071e-08
2.52696636e-05
5.641707591e-08
-1.391418753e-07
2.563189616e-05
-5.641596818e-08
-1.384685292e-07
2.612812135e-05
-1.391422458e-07
2.563189466e-05
5.658089776e-08
2.502795526e-05
-5.657882629e-08
2.552891045e-05
2.502795365e-05
5.038606187e-08
-1.403301268e-07
2.428159194e-05
-5.038752991e-08
-1.373915384e-07
2.48962991e-05
-1.403290813e-07
2.428158988e-05
5.075533276e-08
-2.329023596e-07
2.457691679e-05
-5.075321263e-08
-2.306166327e-07
2.519732268e-05
-2.329020774e-07
2.457691659e-05
5.083886884e-08
2.368334036e-05
-5.083835219e-08
2.431061558e-05
2.36833402e-05
3.414779971e-08
-3.807366679e-07
-3.414781764e-08
-3.738246603e-07
-3.807374114e-07
3.38473764e-08
-4.511626453e-07
-3.384700606e-08
-4.447136377e-07
-4.511629583e-07
3.324707133e-08
-3.324724382e-08
)
;

boundaryField
{
    inlet
    {
        type            calculated;
        value           nonuniform List<scalar> 9(-3.102855299e-05 -3.106290004e-05 -3.102855299e-05 -3.106290004e-05 -3.11013218e-05 -3.106290004e-05 -3.102855299e-05 -3.106290004e-05 -3.102855299e-05);
    }
    outlet
    {
        type            calculated;
        value           nonuniform List<scalar> 9(2.427167992e-05 2.425144019e-05 2.285199086e-05 2.497119694e-05 2.496293332e-05 2.357455904e-05 2.427167926e-05 2.425143974e-05 2.285198908e-05);
    }
    walls
    {
        type            calculated;
        value           uniform 0;
    }
}


// ************************************************************************* //
