/*--------------------------------*- C++ -*----------------------------------*\
  =========                 |
  \\      /  F ield         | OpenFOAM: The Open Source CFD Toolbox
   \\    /   O peration     | Website:  https://openfoam.org
    \\  /    A nd           | Version:  7
     \\/     M anipulation  |
\*---------------------------------------------------------------------------*/
FoamFile
{
    version     2.0;
    format      ascii;
    class       surfaceScalarField;
    location    "0.08";
    object      rhoPhi;
}
// * * * * * * * * * * * * * * * * * * * * * * * * * * * * * * * * * * * * * //

dimensions      [1 0 -1 0 0 0 0];

internalField   nonuniform List<scalar> 
117
(
4.188949336e-08
5.784210966e-08
3.57532537e-05
-4.188875745e-08
5.706707454e-08
3.591671878e-05
5.784299696e-08
3.575325268e-05
4.128197019e-08
-2.641006624e-08
3.593261668e-05
-4.128002195e-08
-2.578195211e-08
3.609761937e-05
-2.641052109e-08
3.593261671e-05
4.215801373e-08
3.578372345e-05
-4.215667519e-08
3.594782909e-05
3.578372223e-05
4.714756915e-08
3.121337821e-08
3.37057504e-05
-4.71450377e-08
3.095151011e-08
3.398971519e-05
3.121407697e-08
3.370575114e-05
4.709890991e-08
-6.378518239e-08
3.398986032e-05
-4.709600793e-08
-6.366514797e-08
3.427360235e-05
-6.378558522e-08
3.39898583e-05
4.751055721e-08
3.370280637e-05
-4.750755288e-08
3.39882863e-05
3.37028051e-05
5.960972906e-08
1.312367121e-08
3.120070247e-05
-5.960808254e-08
1.362196203e-08
3.162339731e-05
1.312289259e-08
3.120069907e-05
6.007187e-08
-1.034516341e-07
3.157637745e-05
-6.006932287e-08
-1.034314245e-07
3.199861748e-05
-1.034522944e-07
3.157637766e-05
6.011401631e-08
3.111069954e-05
-6.011352925e-08
3.153678099e-05
3.111070058e-05
6.455966886e-08
-4.005704104e-08
2.9088462e-05
-6.455739405e-08
-3.8626384e-08
2.96609303e-05
-4.005714687e-08
2.908846283e-05
6.505887163e-08
-1.604434463e-07
2.950812474e-05
-6.505759433e-08
-1.59678437e-07
3.008228724e-05
-1.604438741e-07
2.950812316e-05
6.524289197e-08
2.880949488e-05
-6.524050352e-08
2.938927793e-05
2.880949317e-05
5.790689507e-08
-1.612745451e-07
2.786460713e-05
-5.790858243e-08
-1.579178989e-07
2.857479606e-05
-1.612733446e-07
2.786460494e-05
5.833753779e-08
-2.676576654e-07
2.820699716e-05
-5.833510114e-08
-2.650657158e-07
2.892361203e-05
-2.676573429e-07
2.820699714e-05
5.842492878e-08
2.717594964e-05
-5.842433523e-08
2.790054742e-05
2.717594965e-05
3.913507115e-08
-4.363290791e-07
-3.913509182e-08
-4.284915182e-07
-4.363299344e-07
3.879585666e-08
-5.170085001e-07
-3.879543233e-08
-5.097198803e-07
-5.170088627e-07
3.809857497e-08
-3.809877276e-08
)
;

boundaryField
{
    inlet
    {
        type            calculated;
        value           nonuniform List<scalar> 9(-3.659598002e-05 -3.663646564e-05 -3.659593673e-05 -3.663648748e-05 -3.668177894e-05 -3.663644411e-05 -3.659598002e-05 -3.663646564e-05 -3.659593673e-05);
    }
    outlet
    {
        type            calculated;
        value           nonuniform List<scalar> 9(2.781371584e-05 2.77942989e-05 2.618386084e-05 2.862103336e-05 2.86151932e-05 2.701739598e-05 2.781371528e-05 2.779429861e-05 2.6183859e-05);
    }
    walls
    {
        type            calculated;
        value           uniform 0;
    }
}


// ************************************************************************* //
