/*--------------------------------*- C++ -*----------------------------------*\
  =========                 |
  \\      /  F ield         | OpenFOAM: The Open Source CFD Toolbox
   \\    /   O peration     | Website:  https://openfoam.org
    \\  /    A nd           | Version:  7
     \\/     M anipulation  |
\*---------------------------------------------------------------------------*/
FoamFile
{
    version     2.0;
    format      ascii;
    class       volVectorField::Internal;
    location    "0.08";
    object      steelCloud:UTrans;
}
// * * * * * * * * * * * * * * * * * * * * * * * * * * * * * * * * * * * * * //

dimensions      [1 1 -1 0 0 0 0];

value           nonuniform List<vector> 
54
(
(-6.366691414e-08 -3.26327654e-15 -2.920481173e-10)
(-6.37889945e-08 -3.269533824e-15 -2.926081152e-10)
(-6.366691414e-08 -3.26327654e-15 -2.920481173e-10)
(-6.37889945e-08 -3.269533824e-15 -2.926081152e-10)
(-6.392523816e-08 -3.276517055e-15 -2.932330819e-10)
(-6.37889945e-08 -3.269533824e-15 -2.926081152e-10)
(-6.366691414e-08 -3.26327654e-15 -2.920481173e-10)
(-6.37889945e-08 -3.269533824e-15 -2.926081152e-10)
(-6.366691414e-08 -3.26327654e-15 -2.920481173e-10)
(-5.907787231e-08 -3.028063121e-15 -2.709976071e-10)
(-5.920428833e-08 -3.034542631e-15 -2.715774932e-10)
(-5.907787231e-08 -3.028063121e-15 -2.709976071e-10)
(-5.920428833e-08 -3.034542631e-15 -2.715774932e-10)
(-5.935019799e-08 -3.042021297e-15 -2.722467991e-10)
(-5.920428833e-08 -3.034542631e-15 -2.715774932e-10)
(-5.907787231e-08 -3.028063121e-15 -2.709976071e-10)
(-5.920428833e-08 -3.034542631e-15 -2.715774932e-10)
(-5.907787231e-08 -3.028063121e-15 -2.709976071e-10)
(-5.050902976e-08 -2.588863213e-15 -2.31691252e-10)
(-5.059568894e-08 -2.593304968e-15 -2.320887685e-10)
(-5.050902976e-08 -2.588863212e-15 -2.31691252e-10)
(-5.059568894e-08 -2.593304968e-15 -2.320887685e-10)
(-5.06929941e-08 -2.598292388e-15 -2.325351195e-10)
(-5.059568894e-08 -2.593304968e-15 -2.320887685e-10)
(-5.050902976e-08 -2.588863212e-15 -2.31691252e-10)
(-5.059568894e-08 -2.593304968e-15 -2.320887685e-10)
(-5.050902976e-08 -2.588863213e-15 -2.31691252e-10)
(-4.050035759e-08 -2.075864184e-15 -1.857802179e-10)
(-4.054438354e-08 -2.078120754e-15 -1.859821705e-10)
(-4.050035759e-08 -2.075864184e-15 -1.857802179e-10)
(-4.054438354e-08 -2.078120754e-15 -1.859821705e-10)
(-4.059224914e-08 -2.080574127e-15 -1.86201736e-10)
(-4.054438354e-08 -2.078120754e-15 -1.859821705e-10)
(-4.050035759e-08 -2.075864184e-15 -1.857802179e-10)
(-4.054438354e-08 -2.078120754e-15 -1.859821705e-10)
(-4.050035759e-08 -2.075864184e-15 -1.857802179e-10)
(-3.206220017e-08 -1.643362601e-15 -1.470733319e-10)
(-3.208095491e-08 -1.644323884e-15 -1.471593623e-10)
(-3.206220017e-08 -1.643362601e-15 -1.470733319e-10)
(-3.208095491e-08 -1.644323884e-15 -1.471593623e-10)
(-3.210081108e-08 -1.645341621e-15 -1.47250445e-10)
(-3.208095492e-08 -1.644323884e-15 -1.471593623e-10)
(-3.206220017e-08 -1.643362601e-15 -1.470733319e-10)
(-3.208095492e-08 -1.644323884e-15 -1.471593623e-10)
(-3.206220017e-08 -1.643362601e-15 -1.470733319e-10)
(-2.734247322e-08 -1.401450857e-15 -1.254233527e-10)
(-2.735107798e-08 -1.401891898e-15 -1.254628238e-10)
(-2.734247322e-08 -1.401450857e-15 -1.254233527e-10)
(-2.735107798e-08 -1.401891898e-15 -1.254628238e-10)
(-2.736000508e-08 -1.402349461e-15 -1.255037735e-10)
(-2.735107798e-08 -1.401891898e-15 -1.254628238e-10)
(-2.734247322e-08 -1.401450857e-15 -1.254233527e-10)
(-2.735107798e-08 -1.401891898e-15 -1.254628238e-10)
(-2.734247322e-08 -1.401450857e-15 -1.254233527e-10)
)
;


// ************************************************************************* //
