/*--------------------------------*- C++ -*----------------------------------*\
  =========                 |
  \\      /  F ield         | OpenFOAM: The Open Source CFD Toolbox
   \\    /   O peration     | Website:  https://openfoam.org
    \\  /    A nd           | Version:  7
     \\/     M anipulation  |
\*---------------------------------------------------------------------------*/
FoamFile
{
    version     2.0;
    format      ascii;
    class       volScalarField::Internal;
    location    "0.08";
    object      steelCloud:hsCoeff;
}
// * * * * * * * * * * * * * * * * * * * * * * * * * * * * * * * * * * * * * //

dimensions      [1 2 -2 -1 0 0 0];

value           nonuniform List<scalar> 
54
(
6.813240238e-06
6.826304525e-06
6.813240237e-06
6.826304525e-06
6.84088448e-06
6.826304525e-06
6.813240237e-06
6.826304525e-06
6.813240237e-06
6.322149303e-06
6.335677564e-06
6.322149302e-06
6.335677564e-06
6.351291915e-06
6.335677564e-06
6.322149302e-06
6.335677564e-06
6.322149303e-06
5.405164654e-06
5.414438385e-06
5.405164654e-06
5.414438385e-06
5.424851383e-06
5.414438385e-06
5.405164654e-06
5.414438385e-06
5.405164654e-06
4.334098326e-06
4.338809712e-06
4.334098326e-06
4.338809712e-06
4.343931992e-06
4.338809712e-06
4.334098326e-06
4.338809712e-06
4.334098326e-06
3.431098794e-06
3.433105811e-06
3.431098794e-06
3.433105811e-06
3.435230695e-06
3.433105811e-06
3.431098794e-06
3.433105811e-06
3.431098794e-06
2.926022742e-06
2.926943572e-06
2.926022743e-06
2.926943572e-06
2.927898895e-06
2.926943572e-06
2.926022743e-06
2.926943572e-06
2.926022743e-06
)
;


// ************************************************************************* //
