/*--------------------------------*- C++ -*----------------------------------*\
  =========                 |
  \\      /  F ield         | OpenFOAM: The Open Source CFD Toolbox
   \\    /   O peration     | Website:  https://openfoam.org
    \\  /    A nd           | Version:  7
     \\/     M anipulation  |
\*---------------------------------------------------------------------------*/
FoamFile
{
    version     2.0;
    format      ascii;
    class       volScalarField;
    location    "0.1";
    object      cpavg;
}
// * * * * * * * * * * * * * * * * * * * * * * * * * * * * * * * * * * * * * //

dimensions      [0 2 -2 -1 0 0 0];

internalField   nonuniform List<scalar> 
27
(
1011.693203
1011.693203
1011.693203
1011.693209
1011.693209
1011.693209
1011.693217
1011.693216
1011.693217
1011.71781
1011.717809
1011.71781
1011.717819
1011.717818
1011.717819
1011.71783
1011.717829
1011.71783
1011.731847
1011.731845
1011.731847
1011.731858
1011.731856
1011.731858
1011.731871
1011.73187
1011.731871
)
;

boundaryField
{
    inlet
    {
        type            calculated;
        value           nonuniform 0();
    }
    outlet
    {
        type            calculated;
        value           nonuniform List<scalar> 9(1011.854743 1011.852154 1011.856914 1011.850938 1011.848521 1011.852954 1011.854743 1011.852153 1011.856914);
    }
    walls
    {
        type            calculated;
        value           nonuniform List<scalar> 
36
(
1011.738421
1011.801164
1011.854743
1011.737029
1011.798632
1011.850938
1011.738421
1011.801164
1011.854743
1011.738565
1011.801936
1011.856914
1011.737154
1011.799344
1011.852954
1011.738565
1011.801936
1011.856914
1011.738421
1011.737099
1011.738565
1011.801164
1011.799052
1011.801936
1011.854743
1011.852153
1011.856914
1011.738421
1011.737099
1011.738565
1011.801164
1011.799052
1011.801936
1011.854743
1011.852154
1011.856914
)
;
    }
    procBoundary1to0
    {
        type            processor;
        value           nonuniform List<scalar> 9(1011.664205 1011.664205 1011.664205 1011.664209 1011.664208 1011.664209 1011.664213 1011.664213 1011.664213);
    }
}


// ************************************************************************* //
