/*--------------------------------*- C++ -*----------------------------------*\
  =========                 |
  \\      /  F ield         | OpenFOAM: The Open Source CFD Toolbox
   \\    /   O peration     | Website:  https://openfoam.org
    \\  /    A nd           | Version:  7
     \\/     M anipulation  |
\*---------------------------------------------------------------------------*/
FoamFile
{
    version     2.0;
    format      ascii;
    class       volScalarField;
    location    "0.1";
    object      muavg;
}
// * * * * * * * * * * * * * * * * * * * * * * * * * * * * * * * * * * * * * //

dimensions      [1 -1 -1 0 0 0 0];

internalField   nonuniform List<scalar> 
27
(
1.867332496e-05
1.867332429e-05
1.867332496e-05
1.867333005e-05
1.867332938e-05
1.867333005e-05
1.867333644e-05
1.867333576e-05
1.867333644e-05
1.86949217e-05
1.869492071e-05
1.86949217e-05
1.869492924e-05
1.869492825e-05
1.869492924e-05
1.869493869e-05
1.86949377e-05
1.869493869e-05
1.870722605e-05
1.870722484e-05
1.870722605e-05
1.870723532e-05
1.870723412e-05
1.870723532e-05
1.870724691e-05
1.870724569e-05
1.870724691e-05
)
;

boundaryField
{
    inlet
    {
        type            calculated;
        value           nonuniform 0();
    }
    outlet
    {
        type            calculated;
        value           nonuniform List<scalar> 9(1.881387524e-05 1.881167794e-05 1.881571643e-05 1.881064578e-05 1.880859348e-05 1.881235681e-05 1.881387514e-05 1.881167785e-05 1.881571634e-05);
    }
    walls
    {
        type            calculated;
        value           nonuniform List<scalar> 
36
(
1.871414279e-05
1.876820068e-05
1.881387524e-05
1.871293667e-05
1.876603073e-05
1.881064578e-05
1.871414277e-05
1.876820062e-05
1.881387514e-05
1.87142681e-05
1.876886141e-05
1.881571643e-05
1.871304479e-05
1.876664133e-05
1.881235681e-05
1.871426808e-05
1.876886134e-05
1.881571634e-05
1.871414277e-05
1.871299754e-05
1.871426808e-05
1.876820062e-05
1.876639082e-05
1.876886134e-05
1.881387514e-05
1.881167785e-05
1.881571634e-05
1.871414279e-05
1.871299756e-05
1.87142681e-05
1.876820068e-05
1.876639088e-05
1.876886141e-05
1.881387524e-05
1.881167794e-05
1.881571643e-05
)
;
    }
    procBoundary1to0
    {
        type            processor;
        value           nonuniform List<scalar> 9(1.864782924e-05 1.864782888e-05 1.864782924e-05 1.864783217e-05 1.864783181e-05 1.864783217e-05 1.864783581e-05 1.864783545e-05 1.864783581e-05);
    }
}


// ************************************************************************* //
