/*--------------------------------*- C++ -*----------------------------------*\
  =========                 |
  \\      /  F ield         | OpenFOAM: The Open Source CFD Toolbox
   \\    /   O peration     | Website:  https://openfoam.org
    \\  /    A nd           | Version:  7
     \\/     M anipulation  |
\*---------------------------------------------------------------------------*/
FoamFile
{
    version     2.0;
    format      ascii;
    class       volScalarField;
    location    "0.1";
    object      p;
}
// * * * * * * * * * * * * * * * * * * * * * * * * * * * * * * * * * * * * * //

dimensions      [1 -1 -2 0 0 0 0];

internalField   nonuniform List<scalar> 
27
(
101325.8546
101325.8513
101325.8546
101325.7944
101325.7909
101325.7944
101325.7415
101325.7379
101325.7415
101325.5156
101325.5143
101325.5156
101325.4664
101325.4649
101325.4664
101325.4188
101325.417
101325.4188
101325.1943
101325.1956
101325.1943
101325.1639
101325.165
101325.1639
101325.1296
101325.1304
101325.1296
)
;

boundaryField
{
    inlet
    {
        type            zeroGradient;
    }
    outlet
    {
        type            totalPressure;
        rho             rho;
        psi             none;
        gamma           1;
        p0              uniform 101325;
        value           uniform 101325;
    }
    walls
    {
        type            zeroGradient;
    }
    procBoundary1to0
    {
        type            processor;
        value           nonuniform List<scalar> 9(101326.4387 101326.4344 101326.4387 101326.3729 101326.3684 101326.3729 101326.3171 101326.3125 101326.3171);
    }
}


// ************************************************************************* //
