/*--------------------------------*- C++ -*----------------------------------*\
  =========                 |
  \\      /  F ield         | OpenFOAM: The Open Source CFD Toolbox
   \\    /   O peration     | Website:  https://openfoam.org
    \\  /    A nd           | Version:  7
     \\/     M anipulation  |
\*---------------------------------------------------------------------------*/
FoamFile
{
    version     2.0;
    format      ascii;
    class       surfaceScalarField;
    location    "0.1";
    object      phi;
}
// * * * * * * * * * * * * * * * * * * * * * * * * * * * * * * * * * * * * * //

dimensions      [0 3 -1 0 0 0 0];

internalField   nonuniform List<scalar> 
54
(
5.600464473e-08
-3.47186297e-08
2.526939172e-05
-5.600301909e-08
-3.347392747e-08
2.576414924e-05
-3.471877385e-08
2.526939144e-05
5.643379642e-08
-1.391507866e-07
2.563178039e-05
-5.643321581e-08
-1.384757139e-07
2.612815604e-05
-1.391511396e-07
2.563177787e-05
5.659840172e-08
2.502772798e-05
-5.659673679e-08
2.552883283e-05
2.502772542e-05
5.040867671e-08
-1.403092624e-07
2.42812954e-05
-5.04101295e-08
-1.373667386e-07
2.489619993e-05
-1.403083092e-07
2.428129265e-05
5.077776561e-08
-2.329163456e-07
2.457682357e-05
-5.077611079e-08
-2.306258802e-07
2.519743852e-05
-2.329159378e-07
2.457682173e-05
5.086247304e-08
2.368309138e-05
-5.086205064e-08
2.431058372e-05
2.368309034e-05
3.417233719e-08
-3.807156756e-07
-3.417164604e-08
-3.737925692e-07
-3.807165382e-07
3.387031802e-08
-4.511804432e-07
-3.387023033e-08
-4.447183656e-07
-4.511805933e-07
3.326949169e-08
-3.326924207e-08
)
;

boundaryField
{
    inlet
    {
        type            calculated;
        value           nonuniform 0();
    }
    outlet
    {
        type            calculated;
        value           nonuniform List<scalar> 9(2.427129313e-05 2.425131598e-05 2.285165645e-05 2.497106723e-05 2.496308307e-05 2.357451912e-05 2.427129269e-05 2.425131338e-05 2.285165442e-05);
    }
    walls
    {
        type            calculated;
        value           uniform 0;
    }
    procBoundary1to0
    {
        type            processor;
        value           nonuniform List<scalar> 9(-2.700118273e-05 -2.736570833e-05 -2.700117904e-05 -2.732506443e-05 -2.768936697e-05 -2.732506409e-05 -2.692340176e-05 -2.72908474e-05 -2.692340202e-05);
    }
}


// ************************************************************************* //
