/*--------------------------------*- C++ -*----------------------------------*\
  =========                 |
  \\      /  F ield         | OpenFOAM: The Open Source CFD Toolbox
   \\    /   O peration     | Website:  https://openfoam.org
    \\  /    A nd           | Version:  7
     \\/     M anipulation  |
\*---------------------------------------------------------------------------*/
FoamFile
{
    version     2.0;
    format      ascii;
    class       volScalarField::Internal;
    location    "0.1";
    object      steelCloud:hsTrans;
}
// * * * * * * * * * * * * * * * * * * * * * * * * * * * * * * * * * * * * * //

dimensions      [1 2 -2 0 0 0 0];

value           nonuniform List<scalar> 
27
(
0.0001509869716
0.0001511511021
0.0001509869716
0.0001511511021
0.000151329547
0.0001511511021
0.0001509869716
0.0001511511021
0.0001509869716
0.0001195291793
0.0001195990978
0.0001195291793
0.0001195990978
0.0001196731224
0.0001195990978
0.0001195291793
0.0001195990978
0.0001195291793
0.0001019338463
0.0001019659252
0.0001019338463
0.0001019659252
0.0001019992058
0.0001019659252
0.0001019338463
0.0001019659252
0.0001019338463
)
;


// ************************************************************************* //
