/*--------------------------------*- C++ -*----------------------------------*\
  =========                 |
  \\      /  F ield         | OpenFOAM: The Open Source CFD Toolbox
   \\    /   O peration     | Website:  https://openfoam.org
    \\  /    A nd           | Version:  7
     \\/     M anipulation  |
\*---------------------------------------------------------------------------*/
FoamFile
{
    version     2.0;
    format      ascii;
    class       volScalarField::Internal;
    location    "0.1";
    object      steelCloud:hsCoeff;
}
// * * * * * * * * * * * * * * * * * * * * * * * * * * * * * * * * * * * * * //

dimensions      [1 2 -2 -1 0 0 0];

value           nonuniform List<scalar> 
27
(
4.334008843e-06
4.338720131e-06
4.334008843e-06
4.338720131e-06
4.343842306e-06
4.338720131e-06
4.334008843e-06
4.338720131e-06
4.334008843e-06
3.431027954e-06
3.43303493e-06
3.431027954e-06
3.43303493e-06
3.43515977e-06
3.43303493e-06
3.431027954e-06
3.43303493e-06
3.431027954e-06
2.925962331e-06
2.926883141e-06
2.925962331e-06
2.926883141e-06
2.927838444e-06
2.926883141e-06
2.925962331e-06
2.926883141e-06
2.925962331e-06
)
;


// ************************************************************************* //
