/*--------------------------------*- C++ -*----------------------------------*\
  =========                 |
  \\      /  F ield         | OpenFOAM: The Open Source CFD Toolbox
   \\    /   O peration     | Website:  https://openfoam.org
    \\  /    A nd           | Version:  7
     \\/     M anipulation  |
\*---------------------------------------------------------------------------*/
FoamFile
{
    version     2.0;
    format      ascii;
    class       volVectorField::Internal;
    location    "0.1";
    object      steelCloud:UTrans;
}
// * * * * * * * * * * * * * * * * * * * * * * * * * * * * * * * * * * * * * //

dimensions      [1 1 -1 0 0 0 0];

value           nonuniform List<vector> 
27
(
(-4.046031354e-08 -2.176368251e-15 -1.856149689e-10)
(-4.050429597e-08 -2.178734074e-15 -1.858167418e-10)
(-4.046031354e-08 -2.176368251e-15 -1.856149689e-10)
(-4.050429597e-08 -2.178734074e-15 -1.858167418e-10)
(-4.055211424e-08 -2.181306229e-15 -1.86036112e-10)
(-4.050429597e-08 -2.178734074e-15 -1.858167418e-10)
(-4.046031354e-08 -2.176368251e-15 -1.856149689e-10)
(-4.050429597e-08 -2.178734074e-15 -1.858167418e-10)
(-4.046031354e-08 -2.176368251e-15 -1.856149689e-10)
(-3.203049921e-08 -1.722926874e-15 -1.469425121e-10)
(-3.204923541e-08 -1.723934698e-15 -1.47028466e-10)
(-3.203049921e-08 -1.722926874e-15 -1.469425121e-10)
(-3.204923541e-08 -1.723934698e-15 -1.47028466e-10)
(-3.206907194e-08 -1.725001709e-15 -1.471194677e-10)
(-3.204923541e-08 -1.723934698e-15 -1.47028466e-10)
(-3.203049921e-08 -1.722926874e-15 -1.469425121e-10)
(-3.204923541e-08 -1.723934698e-15 -1.47028466e-10)
(-3.203049921e-08 -1.722926874e-15 -1.469425122e-10)
(-2.73154388e-08 -1.469302845e-15 -1.253117903e-10)
(-2.732403506e-08 -1.469765239e-15 -1.253512263e-10)
(-2.731543881e-08 -1.469302845e-15 -1.253117903e-10)
(-2.732403506e-08 -1.469765239e-15 -1.253512263e-10)
(-2.733295334e-08 -1.470244955e-15 -1.253921396e-10)
(-2.732403506e-08 -1.469765239e-15 -1.253512263e-10)
(-2.731543881e-08 -1.469302845e-15 -1.253117903e-10)
(-2.732403506e-08 -1.469765239e-15 -1.253512263e-10)
(-2.731543881e-08 -1.469302845e-15 -1.253117903e-10)
)
;


// ************************************************************************* //
