/*--------------------------------*- C++ -*----------------------------------*\
  =========                 |
  \\      /  F ield         | OpenFOAM: The Open Source CFD Toolbox
   \\    /   O peration     | Website:  https://openfoam.org
    \\  /    A nd           | Version:  7
     \\/     M anipulation  |
\*---------------------------------------------------------------------------*/
FoamFile
{
    version     2.0;
    format      ascii;
    class       volScalarField;
    location    "0.1";
    object      T;
}
// * * * * * * * * * * * * * * * * * * * * * * * * * * * * * * * * * * * * * //

dimensions      [0 0 0 1 0 0 0];

internalField   nonuniform List<scalar> 
27
(
304.8035871
304.7807156
304.8035868
304.7818697
304.7613985
304.7818693
304.8059623
304.7827647
304.8059619
305.82926
305.7880543
305.829259
305.7948919
305.756446
305.7948909
305.8418046
305.7996463
305.8418036
306.6970165
306.6356165
306.6970151
306.6552372
306.5965967
306.6552357
306.7320188
306.6681408
306.7320172
)
;

boundaryField
{
    inlet
    {
        type            fixedValue;
        value           nonuniform 0();
    }
    outlet
    {
        type            zeroGradient;
    }
    walls
    {
        type            zeroGradient;
    }
    procBoundary1to0
    {
        type            processor;
        value           nonuniform List<scalar> 9(303.5087473 303.5008141 303.5087473 303.49999 303.4939801 303.4999901 303.5073183 303.4992887 303.5073184);
    }
}


// ************************************************************************* //
