/*--------------------------------*- C++ -*----------------------------------*\
  =========                 |
  \\      /  F ield         | OpenFOAM: The Open Source CFD Toolbox
   \\    /   O peration     | Website:  https://openfoam.org
    \\  /    A nd           | Version:  7
     \\/     M anipulation  |
\*---------------------------------------------------------------------------*/
FoamFile
{
    version     2.0;
    format      ascii;
    class       volScalarField;
    location    "0.1";
    object      Tavg;
}
// * * * * * * * * * * * * * * * * * * * * * * * * * * * * * * * * * * * * * //

dimensions      [0 0 0 1 0 0 0];

internalField   nonuniform List<scalar> 
27
(
304.0337902
304.0337774
304.0337901
304.0338869
304.0338742
304.0338869
304.0340083
304.0339955
304.0340083
304.4426872
304.4426685
304.4426872
304.4428305
304.4428118
304.4428305
304.4430101
304.4429912
304.4430101
304.6756838
304.675661
304.6756838
304.6758601
304.6758372
304.6758601
304.6760803
304.6760572
304.6760803
)
;

boundaryField
{
    inlet
    {
        type            fixedValue;
        value           nonuniform 0();
    }
    outlet
    {
        type            zeroGradient;
    }
    walls
    {
        type            zeroGradient;
    }
    procBoundary1to0
    {
        type            processor;
        value           nonuniform List<scalar> 9(303.5511721 303.5511652 303.5511721 303.5512278 303.5512209 303.5512278 303.551297 303.5512901 303.551297);
    }
}


// ************************************************************************* //
