/*--------------------------------*- C++ -*----------------------------------*\
  =========                 |
  \\      /  F ield         | OpenFOAM: The Open Source CFD Toolbox
   \\    /   O peration     | Website:  https://openfoam.org
    \\  /    A nd           | Version:  7
     \\/     M anipulation  |
\*---------------------------------------------------------------------------*/
FoamFile
{
    version     2.0;
    format      ascii;
    class       volVectorField;
    location    "0.1";
    object      U;
}
// * * * * * * * * * * * * * * * * * * * * * * * * * * * * * * * * * * * * * //

dimensions      [0 1 -1 0 0 0 0];

internalField   nonuniform List<vector> 
27
(
(1.657791677 0.00506957968 -0.0318980236)
(1.684384545 1.035609311e-07 -0.03192252268)
(1.657791498 -0.00506955661 -0.03189809335)
(1.679793278 0.005052710468 0.0169998201)
(1.706409356 4.295494735e-08 0.01725584699)
(1.679793182 -0.005052749271 0.01699977999)
(1.649208563 0.004939527946 -0.04276731924)
(1.676054946 8.4171728e-08 -0.04289502576)
(1.649208518 -0.004939524693 -0.04276728931)
(1.550727649 0.005438838384 -0.04377463378)
(1.585427393 -4.869400116e-08 -0.04373851568)
(1.550727503 -0.005438962567 -0.04377450074)
(1.57288041 0.005382057087 0.01645316393)
(1.607765684 9.719245128e-08 0.01692339923)
(1.572880306 -0.005382037364 0.01645323604)
(1.527310255 0.005186525464 -0.05529993708)
(1.562547162 4.603799312e-08 -0.05541187814)
(1.527310123 -0.005186555594 -0.05529999905)
(1.505374555 0.005105118103 -0.06016969384)
(1.548443824 4.5753579e-08 -0.06002340972)
(1.505374511 -0.005105128717 -0.06016972476)
(1.511404262 0.004985462323 0.006286858714)
(1.555151038 2.430832359e-08 0.007153185649)
(1.511404096 -0.004985494996 0.006286815927)
(1.433511609 0.004716338369 -0.07180252541)
(1.477903944 2.637354768e-08 -0.07179467512)
(1.433511505 -0.004716366078 -0.07180253566)
)
;

boundaryField
{
    inlet
    {
        type            interstitialInletVelocity;
        inletVelocity   nonuniform 0();
        value           nonuniform 0();
    }
    outlet
    {
        type            pressureInletOutletVelocity;
        phi             alphaRhoPhi;
        value           nonuniform List<vector> 9((1.505374555 0.005105118103 -0.06016969384) (1.511404262 0.004985462323 0.006286858714) (1.433511609 0.004716338369 -0.07180252541) (1.548443824 4.5753579e-08 -0.06002340972) (1.555151038 2.430832359e-08 0.007153185649) (1.477903944 2.637354768e-08 -0.07179467512) (1.505374511 -0.005105128717 -0.06016972476) (1.511404096 -0.004985494996 0.006286815927) (1.433511505 -0.004716366078 -0.07180253566));
    }
    walls
    {
        type            noSlip;
    }
    procBoundary1to0
    {
        type            processor;
        value           nonuniform List<vector> 9((1.779373903 0.004185087679 -0.02278363451) (1.797940728 5.280412563e-08 -0.02282877201) (1.779373879 -0.004185107234 -0.02278359891) (1.797169402 0.004175136411 0.01332793104) (1.815710926 9.937132176e-08 0.01346169323) (1.797169303 -0.004175110006 0.01332788724) (1.777766666 0.004116804713 -0.03173816879) (1.796449647 2.260559282e-08 -0.03183587213) (1.777766627 -0.004116854545 -0.03173824941));
    }
}


// ************************************************************************* //
