/*--------------------------------*- C++ -*----------------------------------*\
  =========                 |
  \\      /  F ield         | OpenFOAM: The Open Source CFD Toolbox
   \\    /   O peration     | Website:  https://openfoam.org
    \\  /    A nd           | Version:  7
     \\/     M anipulation  |
\*---------------------------------------------------------------------------*/
FoamFile
{
    version     2.0;
    format      ascii;
    class       volVectorField;
    location    "0.1";
    object      Uavg;
}
// * * * * * * * * * * * * * * * * * * * * * * * * * * * * * * * * * * * * * //

dimensions      [0 1 -1 0 0 0 0];

internalField   nonuniform List<vector> 
27
(
(1.159997489 7.174029854e-05 -0.01577033005)
(1.160006592 1.229179849e-08 -0.01577028676)
(1.159997488 -7.171573976e-05 -0.0157703299)
(1.159780628 7.157291005e-05 -0.01583302614)
(1.159789754 1.245250692e-08 -0.01583298215)
(1.159780627 -7.154803135e-05 -0.01583302603)
(1.159546064 7.139750586e-05 -0.01592940508)
(1.159555212 1.260411821e-08 -0.01592937006)
(1.159546062 -7.13723252e-05 -0.01592940502)
(1.157904359 8.552721958e-05 -0.01826041444)
(1.157918082 1.086577548e-08 -0.01826033452)
(1.157904357 -8.550551052e-05 -0.01826041429)
(1.157584057 8.527094303e-05 -0.01833154825)
(1.157597823 1.105091043e-08 -0.0183314663)
(1.157584055 -8.524886608e-05 -0.01833154815)
(1.157237176 8.500043742e-05 -0.01845189643)
(1.157250986 1.122379652e-08 -0.01845183084)
(1.157237174 -8.497801612e-05 -0.01845189637)
(1.163506232 9.437272547e-05 -0.01981316517)
(1.163523026 1.011707592e-08 -0.01981305631)
(1.16350623 -9.435251225e-05 -0.01981316505)
(1.163112813 9.405493492e-05 -0.01988996915)
(1.163129667 1.030267371e-08 -0.01988985647)
(1.163112811 -9.40343521e-05 -0.01988996908)
(1.162686921 9.371955601e-05 -0.0200257238)
(1.162703837 1.047716219e-08 -0.02002563221)
(1.16268692 -9.369862509e-05 -0.02002572378)
)
;

boundaryField
{
    inlet
    {
        type            interstitialInletVelocity;
        inletVelocity   nonuniform 0();
        value           nonuniform 0();
    }
    outlet
    {
        type            pressureInletOutletVelocity;
        phi             alphaRhoPhi;
        value           nonuniform List<vector> 9((1.505381097 0.005104697779 -0.06016997652) (1.511408092 0.004985046857 0.006286576834) (1.433516913 0.004715925814 -0.07180201907) (1.548448168 3.028153948e-08 -0.06002382803) (1.555152485 1.12280661e-08 0.007152861192) (1.477906782 1.129429065e-08 -0.07179432914) (1.505381062 -0.005104675038 -0.0601700052) (1.511407941 -0.004985043678 0.006286533973) (1.433516821 -0.004715918553 -0.07180203134));
    }
    walls
    {
        type            noSlip;
    }
    procBoundary1to0
    {
        type            processor;
        value           nonuniform List<vector> 9((1.1827898 5.997373097e-05 -0.01320702604) (1.182795436 1.409212252e-08 -0.01320701108) (1.182789799 -5.994557673e-05 -0.01320702589) (1.182665855 5.988119511e-05 -0.01326169348) (1.1826715 1.422810446e-08 -0.01326167765) (1.182665854 -5.985277023e-05 -0.01326169338) (1.182530827 5.97867979e-05 -0.0133383812) (1.182536481 1.434904057e-08 -0.0133383683) (1.182530826 -5.975813137e-05 -0.01333838116));
    }
}


// ************************************************************************* //
