/*--------------------------------*- C++ -*----------------------------------*\
  =========                 |
  \\      /  F ield         | OpenFOAM: The Open Source CFD Toolbox
   \\    /   O peration     | Website:  https://openfoam.org
    \\  /    A nd           | Version:  7
     \\/     M anipulation  |
\*---------------------------------------------------------------------------*/
FoamFile
{
    version     2.0;
    format      ascii;
    class       volScalarField;
    location    "0.01";
    object      cpavg;
}
// * * * * * * * * * * * * * * * * * * * * * * * * * * * * * * * * * * * * * //

dimensions      [0 2 -2 -1 0 0 0];

internalField   nonuniform List<scalar> 
54
(
1013.086487
1013.086487
1013.086487
1013.086487
1013.086487
1013.086487
1013.086487
1013.086487
1013.086487
1013.152129
1013.152129
1013.152129
1013.152129
1013.152129
1013.152129
1013.152129
1013.152129
1013.152129
1013.260942
1013.260942
1013.260942
1013.260942
1013.260942
1013.260942
1013.260942
1013.260942
1013.260942
1013.379937
1013.379937
1013.379937
1013.379937
1013.379937
1013.379937
1013.379937
1013.379937
1013.379937
1013.477982
1013.477982
1013.477982
1013.477982
1013.477982
1013.477982
1013.477982
1013.477982
1013.477982
1013.532697
1013.532697
1013.532697
1013.532697
1013.532697
1013.532697
1013.532697
1013.532697
1013.532697
)
;

boundaryField
{
    inlet
    {
        type            calculated;
        value           uniform 1011.338357;
    }
    outlet
    {
        type            calculated;
        value           uniform 1013.925237;
    }
    walls
    {
        type            calculated;
        value           nonuniform List<scalar> 
72
(
1012.22724
1012.914962
1013.361538
1013.643201
1013.817997
1013.925237
1012.227239
1012.914962
1013.361538
1013.643201
1013.817996
1013.925237
1012.22724
1012.914962
1013.361538
1013.643201
1013.817997
1013.925237
1012.22724
1012.914962
1013.361538
1013.643201
1013.817997
1013.925237
1012.227239
1012.914962
1013.361538
1013.643201
1013.817996
1013.925237
1012.22724
1012.914962
1013.361538
1013.643201
1013.817997
1013.925237
1012.22724
1012.227239
1012.22724
1012.914962
1012.914962
1012.914962
1013.361538
1013.361538
1013.361538
1013.643201
1013.643201
1013.643201
1013.817997
1013.817996
1013.817997
1013.925237
1013.925237
1013.925237
1012.22724
1012.227239
1012.22724
1012.914962
1012.914962
1012.914962
1013.361538
1013.361538
1013.361538
1013.643201
1013.643201
1013.643201
1013.817997
1013.817996
1013.817997
1013.925237
1013.925237
1013.925237
)
;
    }
}


// ************************************************************************* //
