/*--------------------------------*- C++ -*----------------------------------*\
  =========                 |
  \\      /  F ield         | OpenFOAM: The Open Source CFD Toolbox
   \\    /   O peration     | Website:  https://openfoam.org
    \\  /    A nd           | Version:  7
     \\/     M anipulation  |
\*---------------------------------------------------------------------------*/
FoamFile
{
    version     2.0;
    format      ascii;
    class       volScalarField;
    location    "0.01";
    object      kappaavg;
}
// * * * * * * * * * * * * * * * * * * * * * * * * * * * * * * * * * * * * * //

dimensions      [1 1 -3 -1 0 0 0];

internalField   nonuniform List<scalar> 
54
(
0.02896519037
0.02896519037
0.02896519037
0.02896519037
0.02896519037
0.02896519037
0.02896519037
0.02896519037
0.02896519037
0.02903473718
0.02903473718
0.02903473718
0.02903473718
0.02903473718
0.02903473718
0.02903473718
0.02903473718
0.02903473718
0.02914958409
0.02914958409
0.02914958409
0.02914958409
0.02914958409
0.02914958409
0.02914958409
0.02914958409
0.02914958409
0.02927458533
0.02927458533
0.02927458533
0.02927458533
0.02927458533
0.02927458533
0.02927458533
0.02927458533
0.02927458533
0.02937712807
0.02937712807
0.02937712807
0.02937712807
0.02937712807
0.02937712807
0.02937712807
0.02937712807
0.02937712807
0.02943417548
0.02943417548
0.02943417548
0.02943417548
0.02943417548
0.02943417548
0.02943417548
0.02943417548
0.02943417548
)
;

boundaryField
{
    inlet
    {
        type            calculated;
        value           uniform 0.02688265352;
    }
    outlet
    {
        type            calculated;
        value           nonuniform List<scalar> 9(0.02983410073 0.02983410061 0.02983410072 0.02983410061 0.02983410049 0.02983410061 0.02983410072 0.0298341006 0.02983410071);
    }
    walls
    {
        type            calculated;
        value           nonuniform List<scalar> 
72
(
0.02802741772
0.02880730519
0.02927639718
0.02955949705
0.02973068381
0.02983410073
0.0280274173
0.02880730479
0.02927639685
0.02955949679
0.02973068362
0.02983410061
0.02802741772
0.02880730519
0.02927639718
0.02955949703
0.02973068379
0.02983410072
0.02802741772
0.0288073052
0.02927639718
0.02955949703
0.0297306838
0.02983410072
0.02802741731
0.02880730479
0.02927639685
0.02955949678
0.02973068362
0.02983410061
0.02802741772
0.0288073052
0.02927639718
0.02955949702
0.02973068379
0.02983410071
0.02802741772
0.02802741731
0.02802741772
0.02880730519
0.02880730479
0.0288073052
0.02927639718
0.02927639685
0.02927639718
0.02955949703
0.02955949678
0.02955949702
0.02973068379
0.02973068362
0.02973068379
0.02983410072
0.0298341006
0.02983410071
0.02802741772
0.02802741731
0.02802741772
0.02880730519
0.02880730479
0.0288073052
0.02927639718
0.02927639685
0.02927639718
0.02955949705
0.02955949679
0.02955949703
0.02973068381
0.02973068363
0.0297306838
0.02983410073
0.02983410061
0.02983410072
)
;
    }
}


// ************************************************************************* //
