/*--------------------------------*- C++ -*----------------------------------*\
  =========                 |
  \\      /  F ield         | OpenFOAM: The Open Source CFD Toolbox
   \\    /   O peration     | Website:  https://openfoam.org
    \\  /    A nd           | Version:  7
     \\/     M anipulation  |
\*---------------------------------------------------------------------------*/
FoamFile
{
    version     2.0;
    format      ascii;
    class       surfaceScalarField;
    location    "0.01";
    object      phi;
}
// * * * * * * * * * * * * * * * * * * * * * * * * * * * * * * * * * * * * * //

dimensions      [0 3 -1 0 0 0 0];

internalField   nonuniform List<scalar> 
117
(
3.351337529e-08
1.695166258e-08
3.843508452e-05
-3.347353262e-08
1.504401023e-08
3.859311715e-05
1.715722991e-08
3.843494049e-05
3.258919055e-08
-4.990323138e-08
3.857564179e-05
-3.234899523e-08
-4.924367368e-08
3.873389727e-05
-4.980929994e-08
3.85759946e-05
3.422138335e-08
3.840181325e-05
-3.387787306e-08
3.856040829e-05
3.840225401e-05
3.079924687e-08
4.209431732e-09
4.31478656e-05
-3.057849969e-08
2.573407484e-09
4.340079642e-05
3.901538543e-09
4.314824629e-05
3.029911212e-08
-5.779015639e-08
4.335752985e-05
-3.076349392e-08
-5.841970128e-08
4.360931439e-05
-5.81088835e-08
4.335745474e-05
3.115683288e-08
4.306319386e-05
-3.157789478e-08
4.331617484e-05
4.306289721e-05
3.479386615e-08
2.234202465e-08
4.544850213e-05
-3.520393476e-08
2.201455533e-08
4.578174561e-05
2.258485561e-08
4.544826243e-05
3.586759077e-08
-4.791659411e-08
4.572745284e-05
-3.595950886e-08
-4.935601254e-08
4.606136042e-05
-4.771453344e-08
4.572732917e-05
3.575155013e-08
4.534229989e-05
-3.571113633e-08
4.567621936e-05
4.53422574e-05
3.121800032e-08
-7.439539925e-09
4.647176598e-05
-3.077977524e-08
-8.131240261e-09
4.686885209e-05
-7.550632518e-09
4.647207172e-05
3.210707466e-08
-6.891008588e-08
4.67775372e-05
-3.18886644e-08
-7.073768839e-08
4.717702135e-05
-6.903803828e-08
4.67776731e-05
3.196811808e-08
4.629564466e-05
-3.175789966e-08
4.669339302e-05
4.629568919e-05
2.621212228e-08
-8.719568121e-08
4.748690349e-05
-2.647309514e-08
-8.8364239e-08
4.794278077e-05
-8.712199099e-08
4.748687804e-05
2.704728873e-08
-1.373258369e-07
4.773864631e-05
-2.726847021e-08
-1.39378692e-07
4.81983831e-05
-1.373134733e-07
4.773862463e-05
2.709058898e-08
4.709512908e-05
-2.726827703e-08
4.755102102e-05
4.709500405e-05
5.855136559e-09
-4.691402499e-07
-5.811360798e-09
-4.717384207e-07
-4.690636759e-07
6.50168378e-09
-4.795107237e-07
-6.377375495e-09
-4.820556481e-07
-4.794403935e-07
7.251706107e-09
-7.064451181e-09
)
;

boundaryField
{
    inlet
    {
        type            calculated;
        value           nonuniform List<scalar> 9(-3.102855299e-05 -3.106290004e-05 -3.102855299e-05 -3.106290004e-05 -3.11013218e-05 -3.106290004e-05 -3.102855299e-05 -3.106290004e-05 -3.102855299e-05);
    }
    outlet
    {
        type            calculated;
        value           nonuniform List<scalar> 9(4.961026859e-05 4.939762309e-05 4.827393434e-05 5.007833582e-05 4.98685608e-05 4.874094363e-05 4.961021193e-05 4.939773309e-05 4.827406961e-05);
    }
    walls
    {
        type            calculated;
        value           uniform 0;
    }
}


// ************************************************************************* //
