/*--------------------------------*- C++ -*----------------------------------*\
  =========                 |
  \\      /  F ield         | OpenFOAM: The Open Source CFD Toolbox
   \\    /   O peration     | Website:  https://openfoam.org
    \\  /    A nd           | Version:  7
     \\/     M anipulation  |
\*---------------------------------------------------------------------------*/
FoamFile
{
    version     2.0;
    format      ascii;
    class       volScalarField::Internal;
    location    "0.01";
    object      steelCloud:UCoeff;
}
// * * * * * * * * * * * * * * * * * * * * * * * * * * * * * * * * * * * * * //

dimensions      [1 0 0 0 0 0 0];

value           nonuniform List<scalar> 
54
(
2.466151727e-08
2.470880536e-08
2.466151727e-08
2.470880536e-08
2.476157964e-08
2.470880536e-08
2.466151727e-08
2.470880536e-08
2.466151727e-08
2.288394197e-08
2.293290948e-08
2.288394197e-08
2.293290948e-08
2.298942791e-08
2.293290948e-08
2.288394197e-08
2.293290948e-08
2.288394197e-08
1.956478222e-08
1.959834984e-08
1.956478222e-08
1.959834984e-08
1.963604121e-08
1.959834984e-08
1.956478222e-08
1.959834984e-08
1.956478222e-08
1.568790135e-08
1.57049549e-08
1.568790135e-08
1.57049549e-08
1.572349574e-08
1.57049549e-08
1.568790135e-08
1.57049549e-08
1.568790135e-08
1.241936277e-08
1.242662746e-08
1.241936277e-08
1.242662746e-08
1.243431879e-08
1.242662746e-08
1.241936277e-08
1.242662746e-08
1.241936277e-08
1.05911663e-08
1.059449937e-08
1.05911663e-08
1.059449937e-08
1.059795731e-08
1.059449937e-08
1.05911663e-08
1.059449937e-08
1.05911663e-08
)
;


// ************************************************************************* //
