/*--------------------------------*- C++ -*----------------------------------*\
  =========                 |
  \\      /  F ield         | OpenFOAM: The Open Source CFD Toolbox
   \\    /   O peration     | Website:  https://openfoam.org
    \\  /    A nd           | Version:  7
     \\/     M anipulation  |
\*---------------------------------------------------------------------------*/
FoamFile
{
    version     2.0;
    format      ascii;
    class       volVectorField::Internal;
    location    "0.01";
    object      steelCloud:UTrans;
}
// * * * * * * * * * * * * * * * * * * * * * * * * * * * * * * * * * * * * * //

dimensions      [1 1 -1 0 0 0 0];

value           nonuniform List<vector> 
54
(
(-3.099524283e-08 1.066344011e-14 -9.283588256e-11)
(-3.105467574e-08 1.06838871e-14 -9.301389399e-11)
(-3.099524283e-08 1.066344011e-14 -9.283588256e-11)
(-3.105467574e-08 1.06838871e-14 -9.301389399e-11)
(-3.112100384e-08 1.070670627e-14 -9.321255762e-11)
(-3.105467574e-08 1.06838871e-14 -9.301389399e-11)
(-3.099524283e-08 1.066344011e-14 -9.283588256e-11)
(-3.105467574e-08 1.06838871e-14 -9.301389399e-11)
(-3.099524283e-08 1.066344011e-14 -9.283588256e-11)
(-2.876113949e-08 9.894830964e-15 -8.614437327e-11)
(-2.882268315e-08 9.916004121e-15 -8.632870672e-11)
(-2.876113948e-08 9.894830964e-15 -8.614437327e-11)
(-2.882268315e-08 9.916004121e-15 -8.632870672e-11)
(-2.889371699e-08 9.940442229e-15 -8.654146483e-11)
(-2.882268315e-08 9.916004121e-15 -8.632870672e-11)
(-2.876113948e-08 9.894830964e-15 -8.614437327e-11)
(-2.882268315e-08 9.916004121e-15 -8.632870672e-11)
(-2.876113949e-08 9.894830964e-15 -8.614437327e-11)
(-2.458953231e-08 8.459653201e-15 -7.364971931e-11)
(-2.463172098e-08 8.474167568e-15 -7.377608135e-11)
(-2.458953231e-08 8.459653201e-15 -7.364971931e-11)
(-2.463172098e-08 8.474167568e-15 -7.377608135e-11)
(-2.467909248e-08 8.490465009e-15 -7.391796683e-11)
(-2.463172098e-08 8.474167568e-15 -7.377608135e-11)
(-2.458953231e-08 8.459653201e-15 -7.364971931e-11)
(-2.463172098e-08 8.474167568e-15 -7.377608135e-11)
(-2.458953231e-08 8.459653202e-15 -7.364971931e-11)
(-1.971696658e-08 6.783321346e-15 -5.905557843e-11)
(-1.973839992e-08 6.790695162e-15 -5.911977485e-11)
(-1.971696658e-08 6.783321346e-15 -5.905557843e-11)
(-1.973839992e-08 6.790695162e-15 -5.911977485e-11)
(-1.976170254e-08 6.798712072e-15 -5.918957005e-11)
(-1.973839992e-08 6.790695162e-15 -5.911977485e-11)
(-1.971696658e-08 6.783321346e-15 -5.905557843e-11)
(-1.973839992e-08 6.790695162e-15 -5.911977485e-11)
(-1.971696658e-08 6.783321346e-15 -5.905557843e-11)
(-1.560898142e-08 5.370031766e-15 -4.675148293e-11)
(-1.561811187e-08 5.37317296e-15 -4.677883016e-11)
(-1.560898142e-08 5.370031766e-15 -4.675148293e-11)
(-1.561811187e-08 5.37317296e-15 -4.677883016e-11)
(-1.562777854e-08 5.376498628e-15 -4.680778341e-11)
(-1.561811188e-08 5.37317296e-15 -4.677883016e-11)
(-1.560898142e-08 5.370031766e-15 -4.675148293e-11)
(-1.561811188e-08 5.37317296e-15 -4.677883016e-11)
(-1.560898142e-08 5.370031766e-15 -4.675148293e-11)
(-1.331125606e-08 4.579534435e-15 -3.986941517e-11)
(-1.331544516e-08 4.58097563e-15 -3.988196221e-11)
(-1.331125606e-08 4.579534435e-15 -3.986941517e-11)
(-1.331544516e-08 4.58097563e-15 -3.988196221e-11)
(-1.331979118e-08 4.582470812e-15 -3.989497926e-11)
(-1.331544516e-08 4.58097563e-15 -3.988196221e-11)
(-1.331125606e-08 4.579534435e-15 -3.986941517e-11)
(-1.331544516e-08 4.58097563e-15 -3.988196221e-11)
(-1.331125606e-08 4.579534435e-15 -3.986941517e-11)
)
;


// ************************************************************************* //
