/*--------------------------------*- C++ -*----------------------------------*\
  =========                 |
  \\      /  F ield         | OpenFOAM: The Open Source CFD Toolbox
   \\    /   O peration     | Website:  https://openfoam.org
    \\  /    A nd           | Version:  7
     \\/     M anipulation  |
\*---------------------------------------------------------------------------*/
FoamFile
{
    version     2.0;
    format      ascii;
    class       volScalarField;
    location    "0.01";
    object      T;
}
// * * * * * * * * * * * * * * * * * * * * * * * * * * * * * * * * * * * * * //

dimensions      [0 0 0 1 0 0 0];

internalField   nonuniform List<scalar> 
54
(
305.5086222
305.5131467
305.5086222
305.5131364
305.5181922
305.5131364
305.508602
305.5131264
305.508602
314.3078761
314.2949155
314.3078871
314.2958226
314.2837117
314.2958223
314.3097347
314.2967261
314.3097248
321.5034082
321.4739383
321.5033908
321.4740384
321.4452274
321.47404
321.5037369
321.4741471
321.5037501
326.7174456
326.679538
326.7174252
326.6769025
326.6391565
326.6769028
326.7123185
326.6742585
326.7123336
330.3429306
330.3044707
330.3429205
330.3024096
330.2637136
330.3024094
330.3388214
330.300224
330.3388294
332.8382911
332.8019106
332.8382857
332.8046862
332.7679034
332.8046854
332.8420856
332.8056692
332.8420898
)
;

boundaryField
{
    inlet
    {
        type            fixedValue;
        value           uniform 298;
    }
    outlet
    {
        type            zeroGradient;
    }
    walls
    {
        type            zeroGradient;
    }
}


// ************************************************************************* //
