/*--------------------------------*- C++ -*----------------------------------*\
  =========                 |
  \\      /  F ield         | OpenFOAM: The Open Source CFD Toolbox
   \\    /   O peration     | Website:  https://openfoam.org
    \\  /    A nd           | Version:  7
     \\/     M anipulation  |
\*---------------------------------------------------------------------------*/
FoamFile
{
    version     2.0;
    format      ascii;
    class       volVectorField;
    location    "0.01";
    object      U;
}
// * * * * * * * * * * * * * * * * * * * * * * * * * * * * * * * * * * * * * //

dimensions      [0 1 -1 0 0 0 0];

internalField   nonuniform List<vector> 
54
(
(1.861906741 0.002730089399 -0.01298727936)
(1.869773466 1.0347789e-06 -0.01308713174)
(1.861914346 -0.002729007091 -0.01298079704)
(1.869283557 0.002711670822 0.00188743962)
(1.877227853 7.300408394e-06 0.001891799212)
(1.869298311 -0.002704487246 0.001897039692)
(1.860985505 0.002744898325 -0.01855614489)
(1.868859305 1.062575536e-05 -0.01860500846)
(1.861000391 -0.002734395564 -0.01855320695)
(2.461685245 0.002144539432 -0.02055088075)
(2.474669907 4.718769601e-06 -0.02071597949)
(2.461665803 -0.002140026856 -0.02058289951)
(2.472743874 0.002109773064 0.007044686191)
(2.485669901 -2.774908664e-05 0.007059950579)
(2.472744222 -0.002137419447 0.007013812234)
(2.457919478 0.002128631724 -0.02496508628)
(2.470936149 -2.614034837e-05 -0.02507681551)
(2.457923119 -0.002154566273 -0.0249635327)
(2.798219484 0.001920047722 -0.02393195652)
(2.816739649 -3.060082932e-05 -0.02407780798)
(2.798227296 -0.001950226011 -0.0239157083)
(2.813735326 0.001963042889 0.01198022352)
(2.832208943 -1.402907691e-05 0.0120782585)
(2.813731596 -0.001976859589 0.01200525043)
(2.79232428 0.00194131984 -0.02785141006)
(2.810877712 -5.571821073e-06 -0.02806237129)
(2.792315995 -0.001946767705 -0.02784287666)
(2.908072212 0.001724036726 -0.02747401532)
(2.931249293 1.024776368e-05 -0.02771080685)
(2.908097577 -0.001713934067 -0.02748425332)
(2.927077919 0.001742917579 0.01263409462)
(2.950356987 -3.332418644e-08 0.01275144421)
(2.927078324 -0.001742967798 0.01262377793)
(2.899986091 0.001731924581 -0.03090551121)
(2.923186565 -9.524088981e-08 -0.03117287628)
(2.899975416 -0.001731980545 -0.03090547063)
(2.952808623 0.002201387291 -0.0314453722)
(2.979662391 -1.965106115e-05 -0.03169550856)
(2.952791164 -0.00222085386 -0.03144438583)
(2.971541816 0.002261256997 0.00920171047)
(2.998646485 -1.849220744e-05 0.009338080021)
(2.97153849 -0.002279508286 0.009205037833)
(2.937003944 0.002177551935 -0.03566570612)
(2.963914594 -1.630451821e-05 -0.03606072866)
(2.937005094 -0.002193555282 -0.03566327134)
(3.061933183 0.0003172242308 -0.05354989883)
(3.091314118 -2.778676268e-06 -0.05396938814)
(3.06194428 -0.0003199613752 -0.0535460856)
(3.059162477 0.0003235635261 -0.01506815455)
(3.088735191 1.554903033e-06 -0.01496186847)
(3.059174297 -0.0003220394988 -0.01506021525)
(2.999368016 0.0003439841265 -0.05451987928)
(3.028695173 5.279105113e-06 -0.05493625019)
(2.999373379 -0.0003387956522 -0.05451589771)
)
;

boundaryField
{
    inlet
    {
        type            interstitialInletVelocity;
        inletVelocity   uniform (1.23 0 0);
        value           nonuniform List<vector> 9((1.939284562 0 0) (1.941431252 0 0) (1.939284562 0 0) (1.941431252 0 0) (1.943832612 0 0) (1.941431252 0 0) (1.939284562 0 0) (1.941431252 0 0) (1.939284562 0 0));
    }
    outlet
    {
        type            pressureInletOutletVelocity;
        phi             alphaRhoPhi;
        value           nonuniform List<vector> 9((3.061933183 0.0003172242308 -0.05354989883) (3.059162477 0.0003235635261 -0.01506815455) (2.999368016 0.0003439841265 -0.05451987928) (3.091314118 -2.778676268e-06 -0.05396938814) (3.088735191 1.554903033e-06 -0.01496186847) (3.028695173 5.279105113e-06 -0.05493625019) (3.06194428 -0.0003199613752 -0.0535460856) (3.059174297 -0.0003220394988 -0.01506021525) (2.999373379 -0.0003387956522 -0.05451589771));
    }
    walls
    {
        type            noSlip;
    }
}


// ************************************************************************* //
