/*--------------------------------*- C++ -*----------------------------------*\
  =========                 |
  \\      /  F ield         | OpenFOAM: The Open Source CFD Toolbox
   \\    /   O peration     | Website:  https://openfoam.org
    \\  /    A nd           | Version:  7
     \\/     M anipulation  |
\*---------------------------------------------------------------------------*/
FoamFile
{
    version     2.0;
    format      ascii;
    class       volVectorField;
    location    "0.01";
    object      Uavg;
}
// * * * * * * * * * * * * * * * * * * * * * * * * * * * * * * * * * * * * * //

dimensions      [0 1 -1 0 0 0 0];

internalField   nonuniform List<vector> 
54
(
(0.9041849715 2.28328745e-05 -0.008994918511)
(0.9041877477 6.807344362e-08 -0.008994953443)
(0.9041849748 -2.26969586e-05 -0.00899495836)
(0.9041647655 2.282646018e-05 -0.0090117806)
(0.9041675429 4.835382185e-08 -0.009011815159)
(0.904164768 -2.272981746e-05 -0.009011819821)
(0.904139009 2.281764642e-05 -0.009040542546)
(0.9041417854 2.885290006e-08 -0.009040579302)
(0.9041390107 -2.275985169e-05 -0.009040580818)
(0.8910236339 2.050623232e-05 -0.009720366309)
(0.8910263875 5.672140456e-08 -0.009720403354)
(0.8910236383 -2.039309293e-05 -0.009720404912)
(0.8909923721 2.050345673e-05 -0.009735038495)
(0.8909951267 3.755959071e-08 -0.009735074989)
(0.8909923747 -2.042841131e-05 -0.009735076595)
(0.8909556058 2.049849599e-05 -0.009761350707)
(0.8909583588 1.862189767e-08 -0.009761389425)
(0.8909556067 -2.046111352e-05 -0.009761387861)
(0.8771635477 1.70978602e-05 -0.01116111865)
(0.8771663272 3.239075558e-08 -0.01116116153)
(0.8771635518 -1.703328729e-05 -0.01116115014)
(0.8771077348 1.71058142e-05 -0.01117264808)
(0.8771105149 1.670012065e-08 -0.01117269043)
(0.8771077374 -1.707245933e-05 -0.01117267934)
(0.8770463664 1.711202578e-05 -0.01119531295)
(0.8770491447 1.128183944e-09 -0.01119535728)
(0.8770463676 -1.710965964e-05 -0.01119534366)
(0.8767686127 1.394681377e-05 -0.01315740348)
(0.8767721627 1.516519411e-09 -0.01315746548)
(0.8767686145 -1.394382332e-05 -0.01315742492)
(0.8766729572 1.397393187e-05 -0.0131648208)
(0.8766765086 -9.270099484e-09 -0.01316488169)
(0.8766729597 -1.399243972e-05 -0.01316484239)
(0.876570207 1.399956697e-05 -0.01318533705)
(0.8765737551 -2.007537561e-08 -0.01318540058)
(0.8765702101 -1.403961065e-05 -0.01318535865)
(0.8899782751 1.136597359e-05 -0.01521514971)
(0.8899831441 -2.483883222e-08 -0.01521524082)
(0.8899782747 -1.141562468e-05 -0.0152151626)
(0.8898322879 1.14151159e-05 -0.01521798063)
(0.8898371575 -3.151585677e-08 -0.01521806982)
(0.88983229 -1.147808644e-05 -0.01521799417)
(0.8896765733 1.1462376e-05 -0.01523796249)
(0.8896814356 -3.837483566e-08 -0.01523805588)
(0.8896765778 -1.153901937e-05 -0.01523797659)
(0.90280268 9.092632202e-06 -0.01656516065)
(0.9028084116 -3.997423783e-08 -0.01656527564)
(0.9028026779 -9.172498279e-06 -0.01656516821)
(0.9026168026 9.156938868e-06 -0.01656445237)
(0.9026225318 -4.410086846e-08 -0.016564565)
(0.9026168042 -9.245067752e-06 -0.01656446095)
(0.9024194808 9.219323576e-06 -0.01658345185)
(0.9024251977 -4.855337451e-08 -0.01658356944)
(0.9024194858 -9.316343586e-06 -0.01658346145)
)
;

boundaryField
{
    inlet
    {
        type            interstitialInletVelocity;
        inletVelocity   uniform (1.23 0 0);
        value           uniform (1.23 0 0);
    }
    outlet
    {
        type            pressureInletOutletVelocity;
        phi             alphaRhoPhi;
        value           nonuniform List<vector> 9((1.247020446 -0.0009525566185 -0.0526982394) (1.239805183 -0.0009080827887 -0.02925531435) (1.205163472 -0.0008703148567 -0.05086419318) (1.260876256 -1.282346306e-06 -0.05309870186) (1.253798013 4.270996881e-07 -0.02945725188) (1.218741235 1.085342002e-07 -0.05127113436) (1.247017253 0.0009512484177 -0.05269651905) (1.239805707 0.0009085130082 -0.0292539235) (1.205165273 0.0008704429512 -0.0508644773));
    }
    walls
    {
        type            noSlip;
    }
}


// ************************************************************************* //
