/*--------------------------------*- C++ -*----------------------------------*\
  =========                 |
  \\      /  F ield         | OpenFOAM: The Open Source CFD Toolbox
   \\    /   O peration     | Website:  https://openfoam.org
    \\  /    A nd           | Version:  7
     \\/     M anipulation  |
\*---------------------------------------------------------------------------*/
FoamFile
{
    version     2.0;
    format      ascii;
    class       volScalarField;
    location    "0.1";
    object      cpavg;
}
// * * * * * * * * * * * * * * * * * * * * * * * * * * * * * * * * * * * * * //

dimensions      [0 2 -2 -1 0 0 0];

internalField   nonuniform List<scalar> 
27
(
1011.623272
1011.623272
1011.623272
1011.623273
1011.623273
1011.623273
1011.623274
1011.623274
1011.623274
1011.63846
1011.63846
1011.63846
1011.638462
1011.638462
1011.638462
1011.638464
1011.638464
1011.638464
1011.664205
1011.664205
1011.664205
1011.664209
1011.664208
1011.664209
1011.664213
1011.664213
1011.664213
)
;

boundaryField
{
    inlet
    {
        type            calculated;
        value           uniform 1011.338357;
    }
    outlet
    {
        type            calculated;
        value           nonuniform 0();
    }
    walls
    {
        type            calculated;
        value           nonuniform List<scalar> 
36
(
1011.454005
1011.564095
1011.660121
1011.454225
1011.56417
1011.659644
1011.454005
1011.564095
1011.660121
1011.454004
1011.564001
1011.660035
1011.454225
1011.564075
1011.659553
1011.454004
1011.564001
1011.660035
1011.454005
1011.454225
1011.454004
1011.564095
1011.564121
1011.564001
1011.660121
1011.659595
1011.660035
1011.454005
1011.454225
1011.454004
1011.564095
1011.564121
1011.564001
1011.660121
1011.659595
1011.660035
)
;
    }
    procBoundary0to1
    {
        type            processor;
        value           nonuniform List<scalar> 9(1011.693203 1011.693203 1011.693203 1011.693209 1011.693209 1011.693209 1011.693217 1011.693216 1011.693217);
    }
}


// ************************************************************************* //
