/*--------------------------------*- C++ -*----------------------------------*\
  =========                 |
  \\      /  F ield         | OpenFOAM: The Open Source CFD Toolbox
   \\    /   O peration     | Website:  https://openfoam.org
    \\  /    A nd           | Version:  7
     \\/     M anipulation  |
\*---------------------------------------------------------------------------*/
FoamFile
{
    version     2.0;
    format      ascii;
    class       volScalarField;
    location    "0.1";
    object      muavg;
}
// * * * * * * * * * * * * * * * * * * * * * * * * * * * * * * * * * * * * * //

dimensions      [1 -1 -1 0 0 0 0];

internalField   nonuniform List<scalar> 
27
(
1.861175638e-05
1.861175634e-05
1.861175638e-05
1.861175727e-05
1.861175723e-05
1.861175727e-05
1.861175823e-05
1.861175819e-05
1.861175823e-05
1.862515251e-05
1.862515237e-05
1.862515251e-05
1.862515404e-05
1.86251539e-05
1.862515404e-05
1.862515585e-05
1.86251557e-05
1.862515585e-05
1.864782924e-05
1.864782888e-05
1.864782924e-05
1.864783217e-05
1.864783181e-05
1.864783217e-05
1.864783581e-05
1.864783545e-05
1.864783581e-05
)
;

boundaryField
{
    inlet
    {
        type            calculated;
        value           uniform 1.835366622e-05;
    }
    outlet
    {
        type            calculated;
        value           nonuniform 0();
    }
    walls
    {
        type            calculated;
        value           nonuniform List<scalar> 
36
(
1.846084852e-05
1.856056138e-05
1.864579148e-05
1.846105028e-05
1.856062892e-05
1.864537242e-05
1.846084852e-05
1.856056139e-05
1.864579148e-05
1.846084831e-05
1.8560477e-05
1.864571601e-05
1.846105006e-05
1.856054326e-05
1.864529186e-05
1.846084831e-05
1.856047701e-05
1.864571601e-05
1.846084852e-05
1.846105016e-05
1.846084831e-05
1.856056139e-05
1.856058505e-05
1.856047701e-05
1.864579148e-05
1.86453289e-05
1.864571601e-05
1.846084852e-05
1.846105016e-05
1.846084831e-05
1.856056138e-05
1.856058505e-05
1.8560477e-05
1.864579148e-05
1.86453289e-05
1.864571601e-05
)
;
    }
    procBoundary0to1
    {
        type            processor;
        value           nonuniform List<scalar> 9(1.867332496e-05 1.867332429e-05 1.867332496e-05 1.867333005e-05 1.867332938e-05 1.867333005e-05 1.867333644e-05 1.867333576e-05 1.867333644e-05);
    }
}


// ************************************************************************* //
