/*--------------------------------*- C++ -*----------------------------------*\
  =========                 |
  \\      /  F ield         | OpenFOAM: The Open Source CFD Toolbox
   \\    /   O peration     | Website:  https://openfoam.org
    \\  /    A nd           | Version:  7
     \\/     M anipulation  |
\*---------------------------------------------------------------------------*/
FoamFile
{
    version     2.0;
    format      ascii;
    class       volScalarField;
    location    "0.1";
    object      p;
}
// * * * * * * * * * * * * * * * * * * * * * * * * * * * * * * * * * * * * * //

dimensions      [1 -1 -2 0 0 0 0];

internalField   nonuniform List<scalar> 
27
(
101329.1328
101329.1261
101329.1328
101329.0656
101329.059
101329.0656
101329.013
101329.0061
101329.013
101327.6037
101327.5992
101327.6037
101327.5369
101327.5323
101327.5369
101327.4802
101327.4755
101327.4802
101326.4387
101326.4344
101326.4387
101326.3729
101326.3684
101326.3729
101326.3171
101326.3125
101326.3171
)
;

boundaryField
{
    inlet
    {
        type            zeroGradient;
    }
    outlet
    {
        type            totalPressure;
        rho             rho;
        psi             none;
        gamma           1;
        p0              nonuniform 0();
        value           nonuniform 0();
    }
    walls
    {
        type            zeroGradient;
    }
    procBoundary0to1
    {
        type            processor;
        value           nonuniform List<scalar> 9(101325.8546 101325.8513 101325.8546 101325.7944 101325.7909 101325.7944 101325.7415 101325.7379 101325.7415);
    }
}


// ************************************************************************* //
