/*--------------------------------*- C++ -*----------------------------------*\
  =========                 |
  \\      /  F ield         | OpenFOAM: The Open Source CFD Toolbox
   \\    /   O peration     | Website:  https://openfoam.org
    \\  /    A nd           | Version:  7
     \\/     M anipulation  |
\*---------------------------------------------------------------------------*/
FoamFile
{
    version     2.0;
    format      ascii;
    class       volScalarField;
    location    "0.1";
    object      pDyn;
}
// * * * * * * * * * * * * * * * * * * * * * * * * * * * * * * * * * * * * * //

dimensions      [1 -1 -2 0 0 0 0];

internalField   nonuniform List<scalar> 
27
(
1.718816133
1.732967692
1.718816091
1.73373335
1.748275816
1.73373332
1.720366588
1.734559129
1.720366529
1.891904607
1.916945292
1.89190449
1.91805319
1.94328493
1.918053162
1.894171662
1.919337543
1.894171478
1.833523451
1.872017477
1.833523404
1.870226493
1.909040525
1.87022629
1.830500913
1.869205368
1.830500839
)
;

boundaryField
{
    inlet
    {
        type            calculated;
        value           nonuniform List<scalar> 9(2.217813018 2.222724277 2.217810395 2.222725602 2.228226114 2.222722971 2.217813018 2.222724277 2.217810395);
    }
    outlet
    {
        type            calculated;
        value           nonuniform 0();
    }
    walls
    {
        type            calculated;
        value           uniform 0;
    }
    procBoundary0to1
    {
        type            processor;
        value           nonuniform List<scalar> 9(1.585084695 1.636432041 1.585084366 1.627112273 1.679177496 1.627112095 1.569171731 1.620751975 1.569171656);
    }
}


// ************************************************************************* //
