/*--------------------------------*- C++ -*----------------------------------*\
  =========                 |
  \\      /  F ield         | OpenFOAM: The Open Source CFD Toolbox
   \\    /   O peration     | Website:  https://openfoam.org
    \\  /    A nd           | Version:  7
     \\/     M anipulation  |
\*---------------------------------------------------------------------------*/
FoamFile
{
    version     2.0;
    format      ascii;
    class       surfaceScalarField;
    location    "0.1";
    object      phi;
}
// * * * * * * * * * * * * * * * * * * * * * * * * * * * * * * * * * * * * * //

dimensions      [0 3 -1 0 0 0 0];

internalField   nonuniform List<scalar> 
54
(
3.577224884e-08
4.939453407e-08
3.061472362e-05
-3.577169825e-08
4.873438926e-08
3.075500061e-05
4.939530731e-08
3.061472265e-05
3.525489681e-08
-2.255407112e-08
3.07685952e-05
-3.525327116e-08
-2.201878624e-08
3.091028289e-05
-2.255446849e-08
3.076859518e-05
3.600152806e-08
3.064077977e-05
-3.600044852e-08
3.078160433e-05
3.064077864e-05
4.051034166e-08
2.683064552e-08
2.902939274e-05
-4.050835184e-08
2.660653318e-08
2.927371757e-05
2.683126798e-08
2.90293931e-05
4.046918213e-08
-5.479294196e-08
2.927379137e-05
-4.046683211e-08
-5.469031697e-08
2.951808067e-05
-5.479328859e-08
2.927378942e-05
4.082207216e-08
2.902677163e-05
-4.081964108e-08
2.927239567e-05
2.902677028e-05
5.148836659e-08
1.135139211e-08
-5.148736305e-08
1.178230949e-08
1.135073974e-08
5.188650472e-08
-8.934025657e-08
-5.188464237e-08
-8.932033404e-08
-8.934083206e-08
5.192404782e-08
-5.192402139e-08
)
;

boundaryField
{
    inlet
    {
        type            calculated;
        value           nonuniform List<scalar> 9(-3.102855299e-05 -3.106290004e-05 -3.102855299e-05 -3.106290004e-05 -3.11013218e-05 -3.106290004e-05 -3.102855299e-05 -3.106290004e-05 -3.102855299e-05);
    }
    outlet
    {
        type            calculated;
        value           nonuniform 0();
    }
    walls
    {
        type            calculated;
        value           uniform 0;
    }
    procBoundary0to1
    {
        type            processor;
        value           nonuniform List<scalar> 9(2.700118273e-05 2.736570833e-05 2.700117904e-05 2.732506443e-05 2.768936697e-05 2.732506409e-05 2.692340176e-05 2.72908474e-05 2.692340202e-05);
    }
}


// ************************************************************************* //
