/*--------------------------------*- C++ -*----------------------------------*\
  =========                 |
  \\      /  F ield         | OpenFOAM: The Open Source CFD Toolbox
   \\    /   O peration     | Website:  https://openfoam.org
    \\  /    A nd           | Version:  7
     \\/     M anipulation  |
\*---------------------------------------------------------------------------*/
FoamFile
{
    version     2.0;
    format      ascii;
    class       surfaceScalarField;
    location    "0.1";
    object      rhoPhi;
}
// * * * * * * * * * * * * * * * * * * * * * * * * * * * * * * * * * * * * * //

dimensions      [1 0 -1 0 0 0 0];

internalField   nonuniform List<scalar> 
54
(
4.190699542e-08
5.786541163e-08
3.575321976e-05
-4.19063504e-08
5.709128671e-08
3.591673556e-05
5.786631748e-08
3.575321862e-05
4.130033966e-08
-2.642194872e-08
3.593263932e-05
-4.129843525e-08
-2.579451845e-08
3.609769752e-05
-2.642241424e-08
3.593263929e-05
4.217554545e-08
3.57837007e-05
-4.217428078e-08
3.594785735e-05
3.578369938e-05
4.716146655e-08
3.123582488e-08
3.370569829e-05
-4.715915004e-08
3.097471947e-08
3.398975067e-05
3.123654954e-08
3.370569869e-05
4.711334955e-08
-6.378922986e-08
3.398990838e-05
-4.71106137e-08
-6.366935217e-08
3.427374574e-05
-6.37896334e-08
3.398990611e-05
4.752457282e-08
3.370278251e-05
-4.752174258e-08
3.398835112e-05
3.370278092e-05
5.962386494e-08
1.314500009e-08
-5.962270283e-08
1.364431857e-08
1.314424464e-08
6.008641576e-08
-1.034568914e-07
-6.008425909e-08
-1.034362087e-07
-1.034575578e-07
6.012860708e-08
-6.012857647e-08
)
;

boundaryField
{
    inlet
    {
        type            calculated;
        value           nonuniform List<scalar> 9(-3.659597829e-05 -3.663646391e-05 -3.659593501e-05 -3.663648575e-05 -3.668177721e-05 -3.663644239e-05 -3.659597829e-05 -3.663646391e-05 -3.659593501e-05);
    }
    outlet
    {
        type            calculated;
        value           nonuniform 0();
    }
    walls
    {
        type            calculated;
        value           uniform 0;
    }
    procBoundary0to1
    {
        type            processor;
        value           nonuniform List<scalar> 9(3.120063517e-05 3.16234518e-05 3.120063091e-05 3.15764491e-05 3.199882045e-05 3.157644872e-05 3.111067345e-05 3.153688051e-05 3.111067377e-05);
    }
}


// ************************************************************************* //
