/*--------------------------------*- C++ -*----------------------------------*\
  =========                 |
  \\      /  F ield         | OpenFOAM: The Open Source CFD Toolbox
   \\    /   O peration     | Website:  https://openfoam.org
    \\  /    A nd           | Version:  7
     \\/     M anipulation  |
\*---------------------------------------------------------------------------*/
FoamFile
{
    version     2.0;
    format      ascii;
    class       volScalarField::Internal;
    location    "0.1";
    object      steelCloud:hsCoeff;
}
// * * * * * * * * * * * * * * * * * * * * * * * * * * * * * * * * * * * * * //

dimensions      [1 2 -2 -1 0 0 0];

value           nonuniform List<scalar> 
27
(
6.813099569e-06
6.826163586e-06
6.813099569e-06
6.826163586e-06
6.840743241e-06
6.826163586e-06
6.813099569e-06
6.826163586e-06
6.813099569e-06
6.322018773e-06
6.335546755e-06
6.322018773e-06
6.335546755e-06
6.351160784e-06
6.335546755e-06
6.322018773e-06
6.335546755e-06
6.322018773e-06
5.405053057e-06
5.414326596e-06
5.405053057e-06
5.414326596e-06
5.424739379e-06
5.414326596e-06
5.405053057e-06
5.414326596e-06
5.405053057e-06
)
;


// ************************************************************************* //
