/*--------------------------------*- C++ -*----------------------------------*\
  =========                 |
  \\      /  F ield         | OpenFOAM: The Open Source CFD Toolbox
   \\    /   O peration     | Website:  https://openfoam.org
    \\  /    A nd           | Version:  7
     \\/     M anipulation  |
\*---------------------------------------------------------------------------*/
FoamFile
{
    version     2.0;
    format      ascii;
    class       volScalarField::Internal;
    location    "0.1";
    object      steelCloud:UCoeff;
}
// * * * * * * * * * * * * * * * * * * * * * * * * * * * * * * * * * * * * * //

dimensions      [1 0 0 0 0 0 0];

value           nonuniform List<scalar> 
27
(
3.49003897e-08
3.496731068e-08
3.49003897e-08
3.496731068e-08
3.504199557e-08
3.496731068e-08
3.49003897e-08
3.496731068e-08
3.49003897e-08
3.238480762e-08
3.245410528e-08
3.238480762e-08
3.245410528e-08
3.25340888e-08
3.245410528e-08
3.238480762e-08
3.245410528e-08
3.238480762e-08
2.76876121e-08
2.773511619e-08
2.768761209e-08
2.773511619e-08
2.778845611e-08
2.773511619e-08
2.768761209e-08
2.773511619e-08
2.76876121e-08
)
;


// ************************************************************************* //
