/*--------------------------------*- C++ -*----------------------------------*\
  =========                 |
  \\      /  F ield         | OpenFOAM: The Open Source CFD Toolbox
   \\    /   O peration     | Website:  https://openfoam.org
    \\  /    A nd           | Version:  7
     \\/     M anipulation  |
\*---------------------------------------------------------------------------*/
FoamFile
{
    version     2.0;
    format      ascii;
    class       volVectorField;
    location    "0.1";
    object      U;
}
// * * * * * * * * * * * * * * * * * * * * * * * * * * * * * * * * * * * * * //

dimensions      [0 1 -1 0 0 0 0];

internalField   nonuniform List<vector> 
27
(
(1.71303523 0.001660607797 -0.007628981067)
(1.720084718 2.120670968e-08 -0.00767344096)
(1.713035209 -0.001660615218 -0.007628947513)
(1.720477999 0.001637347049 0.003479811999)
(1.727691903 5.610558991e-08 0.003500903429)
(1.720477984 -0.001637320852 0.003479824187)
(1.713789547 0.001654639151 -0.01113186069)
(1.720856456 3.828208147e-08 -0.01113644062)
(1.713789518 -0.001654629961 -0.01113188167)
(1.802772267 0.002979261088 -0.01507704303)
(1.814671062 9.130281369e-08 -0.01513251514)
(1.802772211 -0.002979224545 -0.01507703799)
(1.815235561 0.00295790751 0.008240135775)
(1.82714718 9.675386416e-08 0.008301009292)
(1.815235547 -0.002957865446 0.00824013694)
(1.803784861 0.00295065206 -0.02139769687)
(1.815736044 1.066610108e-07 -0.02144081698)
(1.803784773 -0.002950599215 -0.02139769404)
(1.779373903 0.004185087679 -0.02278363451)
(1.797940728 5.280412563e-08 -0.02282877201)
(1.779373879 -0.004185107234 -0.02278359891)
(1.797169402 0.004175136411 0.01332793104)
(1.815710926 9.937132176e-08 0.01346169323)
(1.797169303 -0.004175110006 0.01332788724)
(1.777766666 0.004116804713 -0.03173816879)
(1.796449647 2.260559282e-08 -0.03183587213)
(1.777766627 -0.004116854545 -0.03173824941)
)
;

boundaryField
{
    inlet
    {
        type            interstitialInletVelocity;
        inletVelocity   uniform (1.23 0 0);
        value           nonuniform List<vector> 9((1.939284562 0 0) (1.941431252 0 0) (1.939284562 0 0) (1.941431252 0 0) (1.943832612 0 0) (1.941431252 0 0) (1.939284562 0 0) (1.941431252 0 0) (1.939284562 0 0));
    }
    outlet
    {
        type            pressureInletOutletVelocity;
        phi             alphaRhoPhi;
        value           nonuniform 0();
    }
    walls
    {
        type            noSlip;
    }
    procBoundary0to1
    {
        type            processor;
        value           nonuniform List<vector> 9((1.657791677 0.00506957968 -0.0318980236) (1.684384545 1.035609311e-07 -0.03192252268) (1.657791498 -0.00506955661 -0.03189809335) (1.679793278 0.005052710468 0.0169998201) (1.706409356 4.295494735e-08 0.01725584699) (1.679793182 -0.005052749271 0.01699977999) (1.649208563 0.004939527946 -0.04276731924) (1.676054946 8.4171728e-08 -0.04289502576) (1.649208518 -0.004939524693 -0.04276728931));
    }
}


// ************************************************************************* //
