/*--------------------------------*- C++ -*----------------------------------*\
  =========                 |
  \\      /  F ield         | OpenFOAM: The Open Source CFD Toolbox
   \\    /   O peration     | Website:  https://openfoam.org
    \\  /    A nd           | Version:  7
     \\/     M anipulation  |
\*---------------------------------------------------------------------------*/
FoamFile
{
    version     2.0;
    format      ascii;
    class       volVectorField;
    location    "0.1";
    object      Uavg;
}
// * * * * * * * * * * * * * * * * * * * * * * * * * * * * * * * * * * * * * //

dimensions      [0 1 -1 0 0 0 0];

internalField   nonuniform List<vector> 
27
(
(1.247466702 5.110774601e-05 -0.01021386067)
(1.247470856 1.674087359e-08 -0.01021386531)
(1.247466701 -5.10743051e-05 -0.01021386051)
(1.24743362 5.10739547e-05 -0.01026036763)
(1.247437779 1.685989139e-08 -0.01026036943)
(1.24743362 -5.104027713e-05 -0.01026036753)
(1.247392224 5.104360105e-05 -0.01032374436)
(1.247396383 1.696316124e-08 -0.01032374573)
(1.247392224 -5.100971739e-05 -0.01032374433)
(1.219745371 5.368310106e-05 -0.01124705912)
(1.219749852 1.576673852e-08 -0.01124705858)
(1.21974537 -5.365160601e-05 -0.01124705896)
(1.219683369 5.363221591e-05 -0.01129602992)
(1.219687854 1.588910969e-08 -0.01129602725)
(1.219683368 -5.360047736e-05 -0.01129602983)
(1.219612444 5.35830019e-05 -0.0113632615)
(1.219616933 1.599575038e-08 -0.01136325946)
(1.219612443 -5.355105035e-05 -0.01136326146)
(1.1827898 5.997373097e-05 -0.01320702604)
(1.182795436 1.409212252e-08 -0.01320701108)
(1.182789799 -5.994557673e-05 -0.01320702589)
(1.182665855 5.988119511e-05 -0.01326169348)
(1.1826715 1.422810446e-08 -0.01326167765)
(1.182665854 -5.985277023e-05 -0.01326169338)
(1.182530827 5.97867979e-05 -0.0133383812)
(1.182536481 1.434904057e-08 -0.0133383683)
(1.182530826 -5.975813137e-05 -0.01333838116)
)
;

boundaryField
{
    inlet
    {
        type            interstitialInletVelocity;
        inletVelocity   uniform (1.23 0 0);
        value           uniform (1.23 0 0);
    }
    outlet
    {
        type            pressureInletOutletVelocity;
        phi             alphaRhoPhi;
        value           nonuniform 0();
    }
    walls
    {
        type            noSlip;
    }
    procBoundary0to1
    {
        type            processor;
        value           nonuniform List<vector> 9((1.159997489 7.174029854e-05 -0.01577033005) (1.160006592 1.229179849e-08 -0.01577028676) (1.159997488 -7.171573976e-05 -0.0157703299) (1.159780628 7.157291005e-05 -0.01583302614) (1.159789754 1.245250692e-08 -0.01583298215) (1.159780627 -7.154803135e-05 -0.01583302603) (1.159546064 7.139750586e-05 -0.01592940508) (1.159555212 1.260411821e-08 -0.01592937006) (1.159546062 -7.13723252e-05 -0.01592940502));
    }
}


// ************************************************************************* //
