/*--------------------------------*- C++ -*----------------------------------*\
  =========                 |
  \\      /  F ield         | OpenFOAM: The Open Source CFD Toolbox
   \\    /   O peration     | Website:  https://openfoam.org
    \\  /    A nd           | Version:  7
     \\/     M anipulation  |
\*---------------------------------------------------------------------------*/
FoamFile
{
    version     2.0;
    format      ascii;
    class       surfaceScalarField;
    location    "0.03";
    object      alphaRhoPhi;
}
// * * * * * * * * * * * * * * * * * * * * * * * * * * * * * * * * * * * * * //

dimensions      [1 0 -1 0 0 0 0];

internalField   nonuniform List<scalar> 
54
(
4.794476708e-08
-3.186743884e-08
2.298847889e-05
-4.836573457e-08
-3.084138452e-08
2.34278346e-05
-3.15988246e-08
2.298757435e-05
4.875094566e-08
-1.230640639e-07
2.330593064e-05
-4.863562567e-08
-1.228060233e-07
2.37468601e-05
-1.230408143e-07
2.330605404e-05
4.872305435e-08
2.275949197e-05
-4.881939999e-08
2.320421164e-05
2.275909117e-05
4.51693548e-08
-1.270221665e-07
2.299859479e-05
-4.483871856e-08
-1.256051875e-07
2.357239011e-05
-1.27209547e-07
2.299820576e-05
4.54561492e-08
-2.112172174e-07
2.327351081e-05
-4.549154434e-08
-2.105655299e-07
2.385230348e-05
-2.112866678e-07
2.327348278e-05
4.550005113e-08
2.243083013e-05
-4.545311349e-08
2.301333192e-05
2.243040995e-05
2.985640715e-08
-3.521275713e-07
-2.985360352e-08
-3.480384385e-07
-3.51987958e-07
3.016142173e-08
-4.142968965e-07
-2.989965677e-08
-4.110042414e-07
-4.143023334e-07
2.985166934e-08
-2.970299479e-08
)
;

boundaryField
{
    inlet
    {
        type            calculated;
        value           nonuniform 0();
    }
    outlet
    {
        type            calculated;
        value           nonuniform List<scalar> 9(2.321866573e-05 2.320386462e-05 2.188440486e-05 2.387852185e-05 2.387428126e-05 2.256014382e-05 2.321814542e-05 2.320424421e-05 2.188412937e-05);
    }
    walls
    {
        type            calculated;
        value           uniform 0;
    }
    procBoundary1to0
    {
        type            processor;
        value           nonuniform List<scalar> 9(-2.304367252e-05 -2.333930098e-05 -2.304345729e-05 -2.330217915e-05 -2.3595699e-05 -2.330194321e-05 -2.297053795e-05 -2.326823855e-05 -2.297021105e-05);
    }
}


// ************************************************************************* //
