/*--------------------------------*- C++ -*----------------------------------*\
  =========                 |
  \\      /  F ield         | OpenFOAM: The Open Source CFD Toolbox
   \\    /   O peration     | Website:  https://openfoam.org
    \\  /    A nd           | Version:  7
     \\/     M anipulation  |
\*---------------------------------------------------------------------------*/
FoamFile
{
    version     2.0;
    format      ascii;
    class       volScalarField;
    location    "0.03";
    object      cpavg;
}
// * * * * * * * * * * * * * * * * * * * * * * * * * * * * * * * * * * * * * //

dimensions      [0 2 -2 -1 0 0 0];

internalField   nonuniform List<scalar> 
27
(
1011.796002
1011.796
1011.796002
1011.796022
1011.79602
1011.796022
1011.796046
1011.796043
1011.796046
1011.843964
1011.843961
1011.843965
1011.843992
1011.843989
1011.843992
1011.844026
1011.844023
1011.844026
1011.872155
1011.872152
1011.872155
1011.872188
1011.872185
1011.872188
1011.872229
1011.872225
1011.872229
)
;

boundaryField
{
    inlet
    {
        type            calculated;
        value           nonuniform 0();
    }
    outlet
    {
        type            calculated;
        value           nonuniform List<scalar> 9(1012.182057 1012.174722 1012.18808 1012.171482 1012.164357 1012.177274 1012.182055 1012.17472 1012.188084);
    }
    walls
    {
        type            calculated;
        value           nonuniform List<scalar> 
36
(
1011.815535
1011.988901
1012.182057
1011.812204
1011.982353
1012.171482
1011.815534
1011.988919
1012.182055
1011.816299
1011.991274
1012.18808
1011.812944
1011.984616
1012.177274
1011.816304
1011.991274
1012.188084
1011.815534
1011.812595
1011.816304
1011.988919
1011.983568
1011.991274
1012.182055
1012.17472
1012.188084
1011.815535
1011.812591
1011.816299
1011.988901
1011.983574
1011.991274
1012.182057
1012.174722
1012.18808
)
;
    }
    procBoundary1to0
    {
        type            processor;
        value           nonuniform List<scalar> 9(1011.741714 1011.741713 1011.741714 1011.741727 1011.741726 1011.741727 1011.741742 1011.741741 1011.741742);
    }
}


// ************************************************************************* //
