/*--------------------------------*- C++ -*----------------------------------*\
  =========                 |
  \\      /  F ield         | OpenFOAM: The Open Source CFD Toolbox
   \\    /   O peration     | Website:  https://openfoam.org
    \\  /    A nd           | Version:  7
     \\/     M anipulation  |
\*---------------------------------------------------------------------------*/
FoamFile
{
    version     2.0;
    format      ascii;
    class       volScalarField;
    location    "0.03";
    object      muavg;
}
// * * * * * * * * * * * * * * * * * * * * * * * * * * * * * * * * * * * * * //

dimensions      [1 -1 -1 0 0 0 0];

internalField   nonuniform List<scalar> 
27
(
1.875878456e-05
1.875878285e-05
1.875878461e-05
1.87588006e-05
1.875879888e-05
1.875880064e-05
1.875882004e-05
1.875881832e-05
1.875882009e-05
1.879988187e-05
1.879987934e-05
1.879988192e-05
1.879990422e-05
1.879990169e-05
1.879990427e-05
1.879993158e-05
1.879992904e-05
1.879993163e-05
1.882397862e-05
1.882397552e-05
1.882397867e-05
1.882400535e-05
1.882400224e-05
1.882400539e-05
1.882403819e-05
1.882403506e-05
1.882403823e-05
)
;

boundaryField
{
    inlet
    {
        type            calculated;
        value           nonuniform 0();
    }
    outlet
    {
        type            calculated;
        value           nonuniform List<scalar> 9(1.908380725e-05 1.90779204e-05 1.908863625e-05 1.90753171e-05 1.906958843e-05 1.907996918e-05 1.908380629e-05 1.907791829e-05 1.908863982e-05);
    }
    walls
    {
        type            calculated;
        value           nonuniform List<scalar> 
36
(
1.878049463e-05
1.892635011e-05
1.908380725e-05
1.877764808e-05
1.892092173e-05
1.90753171e-05
1.878049429e-05
1.892636464e-05
1.908380629e-05
1.878114738e-05
1.892831561e-05
1.908863625e-05
1.877828092e-05
1.892279791e-05
1.907996918e-05
1.878115197e-05
1.892831612e-05
1.908863982e-05
1.878049429e-05
1.877798201e-05
1.878115197e-05
1.892636464e-05
1.892192924e-05
1.892831612e-05
1.908380629e-05
1.907791829e-05
1.908863982e-05
1.878049463e-05
1.877797912e-05
1.878114738e-05
1.892635011e-05
1.892193372e-05
1.892831561e-05
1.908380725e-05
1.90779204e-05
1.908863625e-05
)
;
    }
    procBoundary1to0
    {
        type            processor;
        value           nonuniform List<scalar> 9(1.871211686e-05 1.871211588e-05 1.871211689e-05 1.871212708e-05 1.871212611e-05 1.871212712e-05 1.871213926e-05 1.871213828e-05 1.87121393e-05);
    }
}


// ************************************************************************* //
