/*--------------------------------*- C++ -*----------------------------------*\
  =========                 |
  \\      /  F ield         | OpenFOAM: The Open Source CFD Toolbox
   \\    /   O peration     | Website:  https://openfoam.org
    \\  /    A nd           | Version:  7
     \\/     M anipulation  |
\*---------------------------------------------------------------------------*/
FoamFile
{
    version     2.0;
    format      ascii;
    class       volScalarField;
    location    "0.03";
    object      pDyn;
}
// * * * * * * * * * * * * * * * * * * * * * * * * * * * * * * * * * * * * * //

dimensions      [1 -1 -2 0 0 0 0];

internalField   nonuniform List<scalar> 
27
(
1.583603952
1.633338243
1.583516904
1.623656163
1.674191816
1.62364191
1.566283753
1.616141424
1.566186546
1.372771675
1.432881078
1.372748761
1.410195481
1.471386731
1.410180911
1.332359658
1.392144676
1.332331857
1.271073622
1.34133905
1.270953763
1.280936875
1.352647075
1.281042785
1.161096526
1.229607839
1.161077399
)
;

boundaryField
{
    inlet
    {
        type            calculated;
        value           nonuniform 0();
    }
    outlet
    {
        type            calculated;
        value           nonuniform List<scalar> 9(1.271071184 1.280934793 1.161095009 1.341336465 1.352644866 1.229606226 1.270951325 1.281040703 1.161075882);
    }
    walls
    {
        type            calculated;
        value           uniform 0;
    }
    procBoundary1to0
    {
        type            processor;
        value           nonuniform List<scalar> 9(1.836203394 1.873422742 1.835971782 1.870985928 1.908713154 1.870974618 1.83158018 1.869169153 1.83146109);
    }
}


// ************************************************************************* //
