/*--------------------------------*- C++ -*----------------------------------*\
  =========                 |
  \\      /  F ield         | OpenFOAM: The Open Source CFD Toolbox
   \\    /   O peration     | Website:  https://openfoam.org
    \\  /    A nd           | Version:  7
     \\/     M anipulation  |
\*---------------------------------------------------------------------------*/
FoamFile
{
    version     2.0;
    format      ascii;
    class       volScalarField::Internal;
    location    "0.03";
    object      steelCloud:hsTrans;
}
// * * * * * * * * * * * * * * * * * * * * * * * * * * * * * * * * * * * * * //

dimensions      [1 2 -2 0 0 0 0];

value           nonuniform List<scalar> 
27
(
0.0001405546449
0.0001407074349
0.0001405546449
0.0001407074349
0.0001408735503
0.0001407074349
0.0001405546449
0.0001407074349
0.0001405546449
0.0001112704042
0.0001113354917
0.0001112704042
0.0001113354917
0.0001114044016
0.0001113354917
0.0001112704042
0.0001113354917
0.0001112704042
9.489080692e-05
9.492066937e-05
9.489080692e-05
9.492066937e-05
9.495165047e-05
9.492066937e-05
9.489080692e-05
9.492066937e-05
9.489080692e-05
)
;


// ************************************************************************* //
