/*--------------------------------*- C++ -*----------------------------------*\
  =========                 |
  \\      /  F ield         | OpenFOAM: The Open Source CFD Toolbox
   \\    /   O peration     | Website:  https://openfoam.org
    \\  /    A nd           | Version:  7
     \\/     M anipulation  |
\*---------------------------------------------------------------------------*/
FoamFile
{
    version     2.0;
    format      ascii;
    class       volScalarField::Internal;
    location    "0.03";
    object      steelCloud:UCoeff;
}
// * * * * * * * * * * * * * * * * * * * * * * * * * * * * * * * * * * * * * //

dimensions      [1 0 0 0 0 0 0];

value           nonuniform List<scalar> 
27
(
2.231183749e-08
2.233609159e-08
2.231183748e-08
2.233609159e-08
2.236246097e-08
2.233609159e-08
2.231183748e-08
2.233609159e-08
2.231183749e-08
1.766321687e-08
1.767354895e-08
1.766321687e-08
1.767354895e-08
1.76844878e-08
1.767354895e-08
1.766321687e-08
1.767354895e-08
1.766321687e-08
1.50630971e-08
1.50678375e-08
1.50630971e-08
1.50678375e-08
1.507275549e-08
1.50678375e-08
1.50630971e-08
1.50678375e-08
1.50630971e-08
)
;


// ************************************************************************* //
