/*--------------------------------*- C++ -*----------------------------------*\
  =========                 |
  \\      /  F ield         | OpenFOAM: The Open Source CFD Toolbox
   \\    /   O peration     | Website:  https://openfoam.org
    \\  /    A nd           | Version:  7
     \\/     M anipulation  |
\*---------------------------------------------------------------------------*/
FoamFile
{
    version     2.0;
    format      ascii;
    class       volScalarField::Internal;
    location    "0.03";
    object      steelCloud:hsCoeff;
}
// * * * * * * * * * * * * * * * * * * * * * * * * * * * * * * * * * * * * * //

dimensions      [1 2 -2 -1 0 0 0];

value           nonuniform List<scalar> 
27
(
4.340789135e-06
4.345507794e-06
4.340789135e-06
4.345507794e-06
4.350637982e-06
4.345507794e-06
4.340789135e-06
4.345507794e-06
4.340789135e-06
3.436395588e-06
3.438405703e-06
3.436395588e-06
3.438405703e-06
3.440533868e-06
3.438405703e-06
3.436395588e-06
3.438405703e-06
3.436395588e-06
2.93053982e-06
2.931462071e-06
2.93053982e-06
2.931462071e-06
2.932418869e-06
2.931462071e-06
2.93053982e-06
2.931462071e-06
2.93053982e-06
)
;


// ************************************************************************* //
