/*--------------------------------*- C++ -*----------------------------------*\
  =========                 |
  \\      /  F ield         | OpenFOAM: The Open Source CFD Toolbox
   \\    /   O peration     | Website:  https://openfoam.org
    \\  /    A nd           | Version:  7
     \\/     M anipulation  |
\*---------------------------------------------------------------------------*/
FoamFile
{
    version     2.0;
    format      ascii;
    class       volScalarField;
    location    "0.03";
    object      Tavg;
}
// * * * * * * * * * * * * * * * * * * * * * * * * * * * * * * * * * * * * * //

dimensions      [0 0 0 1 0 0 0];

internalField   nonuniform List<scalar> 
27
(
305.6623847
305.662352
305.6623855
305.662691
305.6626583
305.6626918
305.6630625
305.6630297
305.6630633
306.4427024
306.4426542
306.4427034
306.4431297
306.4430814
306.4431306
306.4436525
306.443604
306.4436534
306.9003635
306.9003041
306.9003644
306.9008743
306.9008149
306.9008752
306.901502
306.9014423
306.9015028
)
;

boundaryField
{
    inlet
    {
        type            fixedValue;
        value           nonuniform 0();
    }
    outlet
    {
        type            zeroGradient;
    }
    walls
    {
        type            zeroGradient;
    }
    procBoundary1to0
    {
        type            processor;
        value           nonuniform List<scalar> 9(304.7766432 304.7766247 304.7766439 304.7768385 304.77682 304.7768392 304.777071 304.7770524 304.7770717);
    }
}


// ************************************************************************* //
