/*--------------------------------*- C++ -*----------------------------------*\
  =========                 |
  \\      /  F ield         | OpenFOAM: The Open Source CFD Toolbox
   \\    /   O peration     | Website:  https://openfoam.org
    \\  /    A nd           | Version:  7
     \\/     M anipulation  |
\*---------------------------------------------------------------------------*/
FoamFile
{
    version     2.0;
    format      ascii;
    class       volVectorField;
    location    "0.03";
    object      U;
}
// * * * * * * * * * * * * * * * * * * * * * * * * * * * * * * * * * * * * * //

dimensions      [0 1 -1 0 0 0 0];

internalField   nonuniform List<vector> 
27
(
(1.659219795 0.004931754134 -0.03096662022)
(1.685288209 -2.299745131e-05 -0.03101322628)
(1.659183827 -0.004940629009 -0.03094533159)
(1.680512638 0.004948114648 0.01588278688)
(1.706636961 4.437336464e-07 0.0161392487)
(1.680507096 -0.004933307266 0.01589827012)
(1.650045499 0.00483879393 -0.04158566131)
(1.676347408 -8.380476676e-06 -0.04176097794)
(1.650012895 -0.004832975078 -0.04159458288)
(1.552776212 0.005189530074 -0.04157534776)
(1.586736523 1.197739849e-05 -0.04165729573)
(1.552744368 -0.005163926873 -0.04159513363)
(1.574177845 0.005140748981 0.01483509027)
(1.608331117 -6.493528886e-06 0.01521067475)
(1.574174567 -0.005133728052 0.01481989927)
(1.528868788 0.004956131618 -0.05258273399)
(1.563260549 -2.369650826e-06 -0.05281211368)
(1.528844254 -0.004944961596 -0.05257772719)
(1.504342111 0.004609494447 -0.05641487813)
(1.546134601 -3.493899744e-06 -0.05645083175)
(1.504299952 -0.004600364977 -0.0564069484)
(1.510236015 0.004550634737 0.004045687038)
(1.552669407 8.025687071e-06 0.004759844413)
(1.510259762 -0.00452994886 0.004051807239)
(1.434257142 0.004326018748 -0.06678014487)
(1.477022905 2.748522058e-06 -0.06699391887)
(1.43423945 -0.004310535895 -0.06678435706)
)
;

boundaryField
{
    inlet
    {
        type            interstitialInletVelocity;
        inletVelocity   nonuniform 0();
        value           nonuniform 0();
    }
    outlet
    {
        type            pressureInletOutletVelocity;
        phi             alphaRhoPhi;
        value           nonuniform List<vector> 9((1.504342111 0.004609494447 -0.05641487813) (1.510236015 0.004550634737 0.004045687038) (1.434257142 0.004326018748 -0.06678014487) (1.546134601 -3.493899744e-06 -0.05645083175) (1.552669407 8.025687071e-06 0.004759844413) (1.477022905 2.748522058e-06 -0.06699391887) (1.504299952 -0.004600364977 -0.0564069484) (1.510259762 -0.00452994886 0.004051807239) (1.43423945 -0.004310535895 -0.06678435706));
    }
    walls
    {
        type            noSlip;
    }
    procBoundary1to0
    {
        type            processor;
        value           nonuniform List<vector> 9((1.779511536 0.004166133399 -0.02246225922) (1.797702995 -3.732118669e-06 -0.02254104722) (1.779474743 -0.004156351865 -0.02247417911) (1.796781005 0.004140776287 0.01275671362) (1.81496678 -1.509765512e-05 0.01287133485) (1.796778232 -0.004142386129 0.01275011812) (1.777514328 0.00408630626 -0.03136879393) (1.795839156 -1.027127017e-05 -0.03147945393) (1.777494569 -0.004083081362 -0.03136393192));
    }
}


// ************************************************************************* //
