/*--------------------------------*- C++ -*----------------------------------*\
  =========                 |
  \\      /  F ield         | OpenFOAM: The Open Source CFD Toolbox
   \\    /   O peration     | Website:  https://openfoam.org
    \\  /    A nd           | Version:  7
     \\/     M anipulation  |
\*---------------------------------------------------------------------------*/
FoamFile
{
    version     2.0;
    format      ascii;
    class       volVectorField;
    location    "0.03";
    object      Uavg;
}
// * * * * * * * * * * * * * * * * * * * * * * * * * * * * * * * * * * * * * //

dimensions      [0 1 -1 0 0 0 0];

internalField   nonuniform List<vector> 
27
(
(1.156905996 6.684895368e-05 -0.01456323537)
(1.156914642 1.629696727e-06 -0.01456323127)
(1.156905884 -6.358629484e-05 -0.01456323937)
(1.156699303 6.673528656e-05 -0.01461926518)
(1.156707966 1.628687198e-06 -0.01461926447)
(1.156699199 -6.347497772e-05 -0.01461927619)
(1.156475523 6.660879778e-05 -0.01470530783)
(1.156484201 1.624203891e-06 -0.01470532115)
(1.156475423 -6.335738379e-05 -0.01470532615)
(1.155379243 7.893734244e-05 -0.0167638848)
(1.155392235 2.619903428e-06 -0.01676385443)
(1.1553791 -7.369630544e-05 -0.01676385124)
(1.155075558 7.87866969e-05 -0.01682599024)
(1.155088585 2.637290805e-06 -0.01682596368)
(1.155075433 -7.351100911e-05 -0.01682596715)
(1.154746299 7.861690709e-05 -0.01693118525)
(1.154759356 2.650728124e-06 -0.01693118199)
(1.154746185 -7.331434489e-05 -0.01693117284)
(1.161259252 8.662019229e-05 -0.01813895813)
(1.1612751 3.202689399e-06 -0.01813890082)
(1.161259085 -8.021354205e-05 -0.01813888728)
(1.160887423 8.645223932e-05 -0.01820518863)
(1.160903326 3.238140434e-06 -0.01820513612)
(1.160887289 -7.997551726e-05 -0.01820513417)
(1.160484449 8.625968231e-05 -0.01832254414)
(1.160500394 3.266498181e-06 -0.0183225233)
(1.160484332 -7.972653947e-05 -0.01832250738)
)
;

boundaryField
{
    inlet
    {
        type            interstitialInletVelocity;
        inletVelocity   nonuniform 0();
        value           nonuniform 0();
    }
    outlet
    {
        type            pressureInletOutletVelocity;
        phi             alphaRhoPhi;
        value           nonuniform List<vector> 9((1.500923606 0.00424825814 -0.05342909413) (1.507414713 0.00423976612 0.003157196507) (1.434268172 0.004053994865 -0.06284651837) (1.541503584 -2.534148554e-05 -0.05351283372) (1.548643263 2.973310647e-05 0.003823184772) (1.475656684 1.036110068e-05 -0.06311856706) (1.500854405 -0.00426512374 -0.0533799521) (1.507476961 -0.004202042181 0.003193474755) (1.434255818 -0.004035331517 -0.06286313381));
    }
    walls
    {
        type            noSlip;
    }
    procBoundary1to0
    {
        type            processor;
        value           nonuniform List<vector> 9((1.178916311 5.660499681e-05 -0.01230598605) (1.178921688 5.86869614e-07 -0.0123060184) (1.178916231 -5.542624291e-05 -0.01230604415) (1.178797228 5.650770634e-05 -0.01235632738) (1.178802613 5.603650906e-07 -0.01235635711) (1.178797154 -5.538123436e-05 -0.01235638203) (1.178667426 5.641065162e-05 -0.01242703778) (1.178672819 5.359698161e-07 -0.01242706811) (1.178667356 -5.533262978e-05 -0.01242708779));
    }
}


// ************************************************************************* //
