/*--------------------------------*- C++ -*----------------------------------*\
  =========                 |
  \\      /  F ield         | OpenFOAM: The Open Source CFD Toolbox
   \\    /   O peration     | Website:  https://openfoam.org
    \\  /    A nd           | Version:  7
     \\/     M anipulation  |
\*---------------------------------------------------------------------------*/
FoamFile
{
    version     2.0;
    format      ascii;
    class       surfaceScalarField;
    location    "0.03";
    object      alphaRhoPhi;
}
// * * * * * * * * * * * * * * * * * * * * * * * * * * * * * * * * * * * * * //

dimensions      [1 0 -1 0 0 0 0];

internalField   nonuniform List<scalar> 
54
(
2.617252581e-08
3.58049607e-08
2.315371598e-05
-2.601381698e-08
3.518037929e-08
2.323271514e-05
3.576789295e-08
2.315391248e-05
2.564413434e-08
-1.671153859e-08
2.324256693e-05
-2.55761448e-08
-1.628881033e-08
2.33183989e-05
-1.670176461e-08
2.32425869e-05
2.627648803e-08
2.317267786e-05
-2.615346984e-08
2.325182069e-05
2.317281027e-05
3.034716898e-08
1.87916686e-08
2.310581189e-05
-3.074236534e-08
1.878796542e-08
2.327633185e-05
1.889280743e-08
2.310550987e-05
3.049845192e-08
-4.285182183e-08
2.327501667e-05
-3.057957372e-08
-4.265814061e-08
2.344231227e-05
-4.285937843e-08
2.327506258e-05
3.068123713e-08
2.31003597e-05
-3.09690492e-08
2.327210772e-05
2.310019701e-05
4.164761763e-08
7.306948557e-09
-4.164010818e-08
7.380106599e-09
7.224952168e-09
4.183985717e-08
-7.466642709e-08
-4.207405133e-08
-7.481262569e-08
-7.470137517e-08
4.190700731e-08
-4.203534021e-08
)
;

boundaryField
{
    inlet
    {
        type            calculated;
        value           nonuniform List<scalar> 9(-2.321117274e-05 -2.321115743e-05 -2.321114538e-05 -2.321117122e-05 -2.321115594e-05 -2.321114384e-05 -2.321117275e-05 -2.321115744e-05 -2.321114538e-05);
    }
    outlet
    {
        type            calculated;
        value           nonuniform 0();
    }
    walls
    {
        type            calculated;
        value           uniform 0;
    }
    procBoundary0to1
    {
        type            processor;
        value           nonuniform List<scalar> 9(2.304367252e-05 2.333930098e-05 2.304345729e-05 2.330217915e-05 2.3595699e-05 2.330194321e-05 2.297053795e-05 2.326823855e-05 2.297021105e-05);
    }
}


// ************************************************************************* //
