/*--------------------------------*- C++ -*----------------------------------*\
  =========                 |
  \\      /  F ield         | OpenFOAM: The Open Source CFD Toolbox
   \\    /   O peration     | Website:  https://openfoam.org
    \\  /    A nd           | Version:  7
     \\/     M anipulation  |
\*---------------------------------------------------------------------------*/
FoamFile
{
    version     2.0;
    format      ascii;
    class       volScalarField;
    location    "0.03";
    object      cpavg;
}
// * * * * * * * * * * * * * * * * * * * * * * * * * * * * * * * * * * * * * //

dimensions      [0 2 -2 -1 0 0 0];

internalField   nonuniform List<scalar> 
27
(
1011.668927
1011.668927
1011.668927
1011.668932
1011.668932
1011.668932
1011.668938
1011.668938
1011.668938
1011.695425
1011.695425
1011.695425
1011.695433
1011.695432
1011.695433
1011.695441
1011.695441
1011.695441
1011.741714
1011.741713
1011.741714
1011.741727
1011.741726
1011.741727
1011.741742
1011.741741
1011.741742
)
;

boundaryField
{
    inlet
    {
        type            calculated;
        value           uniform 1011.338357;
    }
    outlet
    {
        type            calculated;
        value           nonuniform 0();
    }
    walls
    {
        type            calculated;
        value           nonuniform List<scalar> 
36
(
1011.433868
1011.541017
1011.666593
1011.43402
1011.540863
1011.665393
1011.433868
1011.541013
1011.666602
1011.433868
1011.540984
1011.666737
1011.43402
1011.540834
1011.665521
1011.433868
1011.540982
1011.666741
1011.433868
1011.43402
1011.433868
1011.541013
1011.540849
1011.540982
1011.666602
1011.66546
1011.666741
1011.433868
1011.43402
1011.433868
1011.541017
1011.540848
1011.540984
1011.666593
1011.66546
1011.666737
)
;
    }
    procBoundary0to1
    {
        type            processor;
        value           nonuniform List<scalar> 9(1011.796002 1011.796 1011.796002 1011.796022 1011.79602 1011.796022 1011.796046 1011.796043 1011.796046);
    }
}


// ************************************************************************* //
