/*--------------------------------*- C++ -*----------------------------------*\
  =========                 |
  \\      /  F ield         | OpenFOAM: The Open Source CFD Toolbox
   \\    /   O peration     | Website:  https://openfoam.org
    \\  /    A nd           | Version:  7
     \\/     M anipulation  |
\*---------------------------------------------------------------------------*/
FoamFile
{
    version     2.0;
    format      ascii;
    class       volScalarField;
    location    "0.03";
    object      muavg;
}
// * * * * * * * * * * * * * * * * * * * * * * * * * * * * * * * * * * * * * //

dimensions      [1 -1 -1 0 0 0 0];

internalField   nonuniform List<scalar> 
27
(
1.8649293e-05
1.864929277e-05
1.864929302e-05
1.864929724e-05
1.864929702e-05
1.864929726e-05
1.864930195e-05
1.864930173e-05
1.864930197e-05
1.867219802e-05
1.867219755e-05
1.867219805e-05
1.867220423e-05
1.867220376e-05
1.867220425e-05
1.867221138e-05
1.867221091e-05
1.867221141e-05
1.871211686e-05
1.871211588e-05
1.871211689e-05
1.871212708e-05
1.871212611e-05
1.871212712e-05
1.871213926e-05
1.871213828e-05
1.87121393e-05
)
;

boundaryField
{
    inlet
    {
        type            calculated;
        value           uniform 1.835366622e-05;
    }
    outlet
    {
        type            calculated;
        value           nonuniform 0();
    }
    walls
    {
        type            calculated;
        value           nonuniform List<scalar> 
36
(
1.844236996e-05
1.853983956e-05
1.865147988e-05
1.844250945e-05
1.853970045e-05
1.865042569e-05
1.844236995e-05
1.853983633e-05
1.865148759e-05
1.844236978e-05
1.853981015e-05
1.865160615e-05
1.844250927e-05
1.853967446e-05
1.865053785e-05
1.844236977e-05
1.853980834e-05
1.865160977e-05
1.844236995e-05
1.844250935e-05
1.844236977e-05
1.853983633e-05
1.85396883e-05
1.853980834e-05
1.865148759e-05
1.865048448e-05
1.865160977e-05
1.844236996e-05
1.844250936e-05
1.844236978e-05
1.853983956e-05
1.853968738e-05
1.853981015e-05
1.865147988e-05
1.865048452e-05
1.865160615e-05
)
;
    }
    procBoundary0to1
    {
        type            processor;
        value           nonuniform List<scalar> 9(1.875878456e-05 1.875878285e-05 1.875878461e-05 1.87588006e-05 1.875879888e-05 1.875880064e-05 1.875882004e-05 1.875881832e-05 1.875882009e-05);
    }
}


// ************************************************************************* //
