/*--------------------------------*- C++ -*----------------------------------*\
  =========                 |
  \\      /  F ield         | OpenFOAM: The Open Source CFD Toolbox
   \\    /   O peration     | Website:  https://openfoam.org
    \\  /    A nd           | Version:  7
     \\/     M anipulation  |
\*---------------------------------------------------------------------------*/
FoamFile
{
    version     2.0;
    format      ascii;
    class       volScalarField;
    location    "0.03";
    object      p;
}
// * * * * * * * * * * * * * * * * * * * * * * * * * * * * * * * * * * * * * //

dimensions      [1 -1 -2 0 0 0 0];

internalField   nonuniform List<scalar> 
27
(
101329.1682
101329.1616
101329.1682
101329.1014
101329.0949
101329.1014
101329.0488
101329.0421
101329.0488
101327.6251
101327.6207
101327.6251
101327.5585
101327.5541
101327.5586
101327.5018
101327.4974
101327.5019
101326.45
101326.4458
101326.45
101326.3844
101326.3801
101326.3844
101326.3287
101326.3243
101326.3287
)
;

boundaryField
{
    inlet
    {
        type            zeroGradient;
    }
    outlet
    {
        type            totalPressure;
        rho             rho;
        psi             none;
        gamma           1;
        p0              nonuniform 0();
        value           nonuniform 0();
    }
    walls
    {
        type            zeroGradient;
    }
    procBoundary0to1
    {
        type            processor;
        value           nonuniform List<scalar> 9(101325.8616 101325.8584 101325.8616 101325.8015 101325.7981 101325.8015 101325.7489 101325.7453 101325.7489);
    }
}


// ************************************************************************* //
