/*--------------------------------*- C++ -*----------------------------------*\
  =========                 |
  \\      /  F ield         | OpenFOAM: The Open Source CFD Toolbox
   \\    /   O peration     | Website:  https://openfoam.org
    \\  /    A nd           | Version:  7
     \\/     M anipulation  |
\*---------------------------------------------------------------------------*/
FoamFile
{
    version     2.0;
    format      ascii;
    class       volScalarField;
    location    "0.03";
    object      pDyn;
}
// * * * * * * * * * * * * * * * * * * * * * * * * * * * * * * * * * * * * * //

dimensions      [1 -1 -2 0 0 0 0];

internalField   nonuniform List<scalar> 
27
(
1.694068592
1.707839979
1.694097407
1.708487008
1.722601748
1.708517598
1.695427215
1.709230673
1.695459031
1.882047328
1.906465359
1.882103358
1.907149986
1.931516136
1.907093603
1.883578088
1.907964616
1.883581483
1.836203394
1.873422742
1.835971782
1.870985928
1.908713154
1.870974618
1.83158018
1.869169153
1.83146109
)
;

boundaryField
{
    inlet
    {
        type            calculated;
        value           nonuniform List<scalar> 9(2.217814753 2.222726028 2.217812141 2.222727347 2.228227876 2.222724728 2.217814754 2.222726029 2.217812142);
    }
    outlet
    {
        type            calculated;
        value           nonuniform 0();
    }
    walls
    {
        type            calculated;
        value           uniform 0;
    }
    procBoundary0to1
    {
        type            processor;
        value           nonuniform List<scalar> 9(1.583603952 1.633338243 1.583516904 1.623656163 1.674191816 1.62364191 1.566283753 1.616141424 1.566186546);
    }
}


// ************************************************************************* //
