/*--------------------------------*- C++ -*----------------------------------*\
  =========                 |
  \\      /  F ield         | OpenFOAM: The Open Source CFD Toolbox
   \\    /   O peration     | Website:  https://openfoam.org
    \\  /    A nd           | Version:  7
     \\/     M anipulation  |
\*---------------------------------------------------------------------------*/
FoamFile
{
    version     2.0;
    format      ascii;
    class       surfaceScalarField;
    location    "0.03";
    object      phi;
}
// * * * * * * * * * * * * * * * * * * * * * * * * * * * * * * * * * * * * * //

dimensions      [0 3 -1 0 0 0 0];

internalField   nonuniform List<scalar> 
54
(
3.521952982e-08
4.818160315e-08
3.059398799e-05
-3.500596043e-08
4.739715423e-08
3.073242044e-05
4.813172224e-08
3.059424545e-05
3.454935314e-08
-2.248820204e-08
3.074544446e-05
-3.445775345e-08
-2.19452923e-08
3.088470664e-05
-2.247504949e-08
3.074547117e-05
3.535946975e-08
3.061902618e-05
-3.519392792e-08
3.075767816e-05
3.061919982e-05
3.943447118e-08
2.441872259e-08
2.901151256e-05
-3.994800419e-08
2.444291195e-08
2.925111056e-05
2.455014534e-08
2.901113462e-05
3.967808877e-08
-5.568348278e-08
2.924945946e-05
-3.978362756e-08
-5.54976561e-08
2.948929263e-05
-5.569330026e-08
2.924951748e-05
3.986848549e-08
2.900467884e-05
-4.024247883e-08
2.924580808e-05
2.900447508e-05
5.063797919e-08
8.88428579e-09
-5.062885455e-08
8.979560672e-09
8.784590022e-09
5.090763433e-08
-9.078467018e-08
-5.119258446e-08
-9.102651466e-08
-9.082716815e-08
5.095350832e-08
-5.110954767e-08
)
;

boundaryField
{
    inlet
    {
        type            calculated;
        value           nonuniform List<scalar> 9(-3.102855299e-05 -3.106290004e-05 -3.102855299e-05 -3.106290004e-05 -3.11013218e-05 -3.106290004e-05 -3.102855299e-05 -3.106290004e-05 -3.102855299e-05);
    }
    outlet
    {
        type            calculated;
        value           nonuniform 0();
    }
    walls
    {
        type            calculated;
        value           uniform 0;
    }
    procBoundary0to1
    {
        type            processor;
        value           nonuniform List<scalar> 9(2.699699371e-05 2.735483723e-05 2.699674693e-05 2.731154295e-05 2.766895038e-05 2.731126887e-05 2.691174567e-05 2.727196134e-05 2.691136799e-05);
    }
}


// ************************************************************************* //
