/*--------------------------------*- C++ -*----------------------------------*\
  =========                 |
  \\      /  F ield         | OpenFOAM: The Open Source CFD Toolbox
   \\    /   O peration     | Website:  https://openfoam.org
    \\  /    A nd           | Version:  7
     \\/     M anipulation  |
\*---------------------------------------------------------------------------*/
FoamFile
{
    version     2.0;
    format      ascii;
    class       volScalarField::Internal;
    location    "0.03";
    object      steelCloud:UCoeff;
}
// * * * * * * * * * * * * * * * * * * * * * * * * * * * * * * * * * * * * * //

dimensions      [1 0 0 0 0 0 0];

value           nonuniform List<scalar> 
27
(
3.507440245e-08
3.514165709e-08
3.507440245e-08
3.514165709e-08
3.521671437e-08
3.514165709e-08
3.507440245e-08
3.514165709e-08
3.507440245e-08
3.254627772e-08
3.26159209e-08
3.254627772e-08
3.26159209e-08
3.269630322e-08
3.26159209e-08
3.254627772e-08
3.26159209e-08
3.254627772e-08
2.782566206e-08
2.787340301e-08
2.782566206e-08
2.787340301e-08
2.792700888e-08
2.787340301e-08
2.782566206e-08
2.787340301e-08
2.782566206e-08
)
;


// ************************************************************************* //
