/*--------------------------------*- C++ -*----------------------------------*\
  =========                 |
  \\      /  F ield         | OpenFOAM: The Open Source CFD Toolbox
   \\    /   O peration     | Website:  https://openfoam.org
    \\  /    A nd           | Version:  7
     \\/     M anipulation  |
\*---------------------------------------------------------------------------*/
FoamFile
{
    version     2.0;
    format      ascii;
    class       volScalarField::Internal;
    location    "0.03";
    object      steelCloud:hsCoeff;
}
// * * * * * * * * * * * * * * * * * * * * * * * * * * * * * * * * * * * * * //

dimensions      [1 2 -2 -1 0 0 0];

value           nonuniform List<scalar> 
27
(
6.823758247e-06
6.836842702e-06
6.823758247e-06
6.836842702e-06
6.851445166e-06
6.836842702e-06
6.823758247e-06
6.836842702e-06
6.823758247e-06
6.331909186e-06
6.345458332e-06
6.331909186e-06
6.345458332e-06
6.361096788e-06
6.345458331e-06
6.331909186e-06
6.345458331e-06
6.331909186e-06
5.413508933e-06
5.42279698e-06
5.413508933e-06
5.42279698e-06
5.433226053e-06
5.42279698e-06
5.413508933e-06
5.42279698e-06
5.413508933e-06
)
;


// ************************************************************************* //
