/*--------------------------------*- C++ -*----------------------------------*\
  =========                 |
  \\      /  F ield         | OpenFOAM: The Open Source CFD Toolbox
   \\    /   O peration     | Website:  https://openfoam.org
    \\  /    A nd           | Version:  7
     \\/     M anipulation  |
\*---------------------------------------------------------------------------*/
FoamFile
{
    version     2.0;
    format      ascii;
    class       volScalarField::Internal;
    location    "0.03";
    object      steelCloud:hsTrans;
}
// * * * * * * * * * * * * * * * * * * * * * * * * * * * * * * * * * * * * * //

dimensions      [1 2 -2 0 0 0 0];

value           nonuniform List<scalar> 
27
(
0.0002209531233
0.0002213767977
0.0002209531233
0.0002213767977
0.0002218496251
0.0002213767977
0.0002209531233
0.0002213767977
0.0002209531233
0.0002050270629
0.0002054657839
0.0002050270629
0.0002054657839
0.0002059721567
0.0002054657839
0.0002050270629
0.0002054657839
0.0002050270629
0.0001752892854
0.0001755900321
0.0001752892854
0.0001755900321
0.0001759277252
0.0001755900321
0.0001752892854
0.0001755900321
0.0001752892854
)
;


// ************************************************************************* //
