/*--------------------------------*- C++ -*----------------------------------*\
  =========                 |
  \\      /  F ield         | OpenFOAM: The Open Source CFD Toolbox
   \\    /   O peration     | Website:  https://openfoam.org
    \\  /    A nd           | Version:  7
     \\/     M anipulation  |
\*---------------------------------------------------------------------------*/
FoamFile
{
    version     2.0;
    format      ascii;
    class       volVectorField::Internal;
    location    "0.03";
    object      steelCloud:UTrans;
}
// * * * * * * * * * * * * * * * * * * * * * * * * * * * * * * * * * * * * * //

dimensions      [1 1 -1 0 0 0 0];

value           nonuniform List<vector> 
27
(
(-6.380681711e-08 5.855561998e-13 -2.785388352e-10)
(-6.392916573e-08 5.866789951e-13 -2.790729293e-10)
(-6.380681711e-08 5.855561998e-13 -2.785388352e-10)
(-6.392916573e-08 5.866789951e-13 -2.790729293e-10)
(-6.406570878e-08 5.879320529e-13 -2.79668987e-10)
(-6.392916573e-08 5.866789951e-13 -2.790729293e-10)
(-6.380681711e-08 5.855561998e-13 -2.785388352e-10)
(-6.392916573e-08 5.866789951e-13 -2.790729293e-10)
(-6.380681711e-08 5.855561998e-13 -2.785388352e-10)
(-5.920769123e-08 5.433499468e-13 -2.584620594e-10)
(-5.933438503e-08 5.445126178e-13 -2.590151217e-10)
(-5.920769123e-08 5.433499467e-13 -2.584620594e-10)
(-5.933438503e-08 5.445126178e-13 -2.590151217e-10)
(-5.948061532e-08 5.458545755e-13 -2.596534675e-10)
(-5.933438503e-08 5.445126178e-13 -2.590151217e-10)
(-5.920769123e-08 5.433499467e-13 -2.584620594e-10)
(-5.933438503e-08 5.445126178e-13 -2.590151217e-10)
(-5.920769123e-08 5.433499468e-13 -2.584620594e-10)
(-5.062001933e-08 4.645407418e-13 -2.209739e-10)
(-5.070686893e-08 4.653377621e-13 -2.213530286e-10)
(-5.062001933e-08 4.645407418e-13 -2.209739e-10)
(-5.070686893e-08 4.653377621e-13 -2.213530286e-10)
(-5.080438792e-08 4.662326954e-13 -2.217787327e-10)
(-5.070686893e-08 4.653377621e-13 -2.213530286e-10)
(-5.062001933e-08 4.645407418e-13 -2.209739e-10)
(-5.070686893e-08 4.653377621e-13 -2.213530286e-10)
(-5.062001933e-08 4.645407419e-13 -2.209739e-10)
)
;


// ************************************************************************* //
