/*--------------------------------*- C++ -*----------------------------------*\
  =========                 |
  \\      /  F ield         | OpenFOAM: The Open Source CFD Toolbox
   \\    /   O peration     | Website:  https://openfoam.org
    \\  /    A nd           | Version:  7
     \\/     M anipulation  |
\*---------------------------------------------------------------------------*/
FoamFile
{
    version     2.0;
    format      ascii;
    class       volVectorField;
    location    "0.03";
    object      U;
}
// * * * * * * * * * * * * * * * * * * * * * * * * * * * * * * * * * * * * * //

dimensions      [0 1 -1 0 0 0 0];

internalField   nonuniform List<vector> 
27
(
(1.708298881 0.001644337961 -0.007634134679)
(1.71526977 6.243042959e-06 -0.00768759356)
(1.708306107 -0.001631961 -0.007638104681)
(1.715648552 0.001612287632 0.003422962528)
(1.722772886 2.144642728e-06 0.003439739748)
(1.715655253 -0.001603887143 0.003421445319)
(1.709027893 0.001632951539 -0.01108822067)
(1.716012983 4.602700409e-06 -0.01108965669)
(1.70903558 -0.001622176968 -0.01108585279)
(1.799890233 0.002938607837 -0.01505159475)
(1.81160849 -2.149249754e-05 -0.01508827066)
(1.79990427 -0.002948897783 -0.01503632385)
(1.812104995 0.002939733058 0.007989493975)
(1.823789985 -6.212225033e-06 0.008066711113)
(1.812100373 -0.002934882015 0.00799434652)
(1.800769004 0.002925359126 -0.02130474169)
(1.812511475 -1.626898807e-05 -0.02135870743)
(1.800774515 -0.002930513038 -0.02131456151)
(1.779511536 0.004166133399 -0.02246225922)
(1.797702995 -3.732118669e-06 -0.02254104722)
(1.779474743 -0.004156351865 -0.02247417911)
(1.796781005 0.004140776287 0.01275671362)
(1.81496678 -1.509765512e-05 0.01287133485)
(1.796778232 -0.004142386129 0.01275011812)
(1.777514328 0.00408630626 -0.03136879393)
(1.795839156 -1.027127017e-05 -0.03147945393)
(1.777494569 -0.004083081362 -0.03136393192)
)
;

boundaryField
{
    inlet
    {
        type            interstitialInletVelocity;
        inletVelocity   uniform (1.23 0 0);
        value           nonuniform List<vector> 9((1.939284562 0 0) (1.941431252 0 0) (1.939284562 0 0) (1.941431252 0 0) (1.943832612 0 0) (1.941431252 0 0) (1.939284562 0 0) (1.941431252 0 0) (1.939284562 0 0));
    }
    outlet
    {
        type            pressureInletOutletVelocity;
        phi             alphaRhoPhi;
        value           nonuniform 0();
    }
    walls
    {
        type            noSlip;
    }
    procBoundary0to1
    {
        type            processor;
        value           nonuniform List<vector> 9((1.659219795 0.004931754134 -0.03096662022) (1.685288209 -2.299745131e-05 -0.03101322628) (1.659183827 -0.004940629009 -0.03094533159) (1.680512638 0.004948114648 0.01588278688) (1.706636961 4.437336464e-07 0.0161392487) (1.680507096 -0.004933307266 0.01589827012) (1.650045499 0.00483879393 -0.04158566131) (1.676347408 -8.380476676e-06 -0.04176097794) (1.650012895 -0.004832975078 -0.04159458288));
    }
}


// ************************************************************************* //
