/*--------------------------------*- C++ -*----------------------------------*\
  =========                 |
  \\      /  F ield         | OpenFOAM: The Open Source CFD Toolbox
   \\    /   O peration     | Website:  https://openfoam.org
    \\  /    A nd           | Version:  7
     \\/     M anipulation  |
\*---------------------------------------------------------------------------*/
FoamFile
{
    version     2.0;
    format      ascii;
    class       volVectorField;
    location    "0.03";
    object      Uavg;
}
// * * * * * * * * * * * * * * * * * * * * * * * * * * * * * * * * * * * * * //

dimensions      [0 1 -1 0 0 0 0];

internalField   nonuniform List<vector> 
27
(
(1.242299627 4.898253631e-05 -0.009683584984)
(1.242303675 -5.837276068e-07 -0.009683628938)
(1.242299649 -5.014307233e-05 -0.009683657781)
(1.24226658 4.891627753e-05 -0.00972829715)
(1.242270629 -6.18927255e-07 -0.009728337713)
(1.242266601 -5.014694712e-05 -0.009728368958)
(1.24222545 4.885363259e-05 -0.009789483469)
(1.2422295 -6.539010858e-07 -0.0097895229)
(1.242225472 -5.015397886e-05 -0.009789553663)
(1.215082872 5.118677689e-05 -0.0105871798)
(1.215087197 -2.086535046e-07 -0.01058722217)
(1.215082847 -5.159651067e-05 -0.01058725235)
(1.215022391 5.110956748e-05 -0.01063353405)
(1.215026718 -2.429816668e-07 -0.0106335733)
(1.215022367 -5.158756979e-05 -0.0106336044)
(1.214953254 5.103433822e-05 -0.01069743136)
(1.214957585 -2.766009608e-07 -0.01069747001)
(1.214953233 -5.157918849e-05 -0.0106974986)
(1.178916311 5.660499681e-05 -0.01230598605)
(1.178921688 5.86869614e-07 -0.0123060184)
(1.178916231 -5.542624291e-05 -0.01230604415)
(1.178797228 5.650770634e-05 -0.01235632738)
(1.178802613 5.603650906e-07 -0.01235635711)
(1.178797154 -5.538123436e-05 -0.01235638203)
(1.178667426 5.641065162e-05 -0.01242703778)
(1.178672819 5.359698161e-07 -0.01242706811)
(1.178667356 -5.533262978e-05 -0.01242708779)
)
;

boundaryField
{
    inlet
    {
        type            interstitialInletVelocity;
        inletVelocity   uniform (1.23 0 0);
        value           uniform (1.23 0 0);
    }
    outlet
    {
        type            pressureInletOutletVelocity;
        phi             alphaRhoPhi;
        value           nonuniform 0();
    }
    walls
    {
        type            noSlip;
    }
    procBoundary0to1
    {
        type            processor;
        value           nonuniform List<vector> 9((1.156905996 6.684895368e-05 -0.01456323537) (1.156914642 1.629696727e-06 -0.01456323127) (1.156905884 -6.358629484e-05 -0.01456323937) (1.156699303 6.673528656e-05 -0.01461926518) (1.156707966 1.628687198e-06 -0.01461926447) (1.156699199 -6.347497772e-05 -0.01461927619) (1.156475523 6.660879778e-05 -0.01470530783) (1.156484201 1.624203891e-06 -0.01470532115) (1.156475423 -6.335738379e-05 -0.01470532615));
    }
}


// ************************************************************************* //
