/*--------------------------------*- C++ -*----------------------------------*\
  =========                 |
  \\      /  F ield         | OpenFOAM: The Open Source CFD Toolbox
   \\    /   O peration     | Website:  https://openfoam.org
    \\  /    A nd           | Version:  7
     \\/     M anipulation  |
\*---------------------------------------------------------------------------*/
FoamFile
{
    version     2.0;
    format      ascii;
    class       surfaceScalarField;
    location    "0.055";
    object      alphaRhoPhi;
}
// * * * * * * * * * * * * * * * * * * * * * * * * * * * * * * * * * * * * * //

dimensions      [1 0 -1 0 0 0 0];

internalField   nonuniform List<scalar> 
117
(
2.652458138e-08
3.664149413e-08
2.314810178e-05
-2.652182797e-08
3.610610627e-08
2.322821013e-05
3.664167719e-08
2.314810382e-05
2.610674657e-08
-1.670753962e-08
2.323849797e-05
-2.610416805e-08
-1.628961218e-08
2.331585644e-05
-1.670770525e-08
2.3238499e-05
2.669371927e-08
2.316783857e-05
-2.669089915e-08
2.324833521e-05
2.316783984e-05
3.107384348e-08
2.056806704e-08
2.309683485e-05
-3.106988894e-08
2.036904428e-08
2.327035646e-05
2.056837357e-08
2.309684024e-05
3.100327038e-08
-4.205932868e-08
2.327049295e-05
-3.099889093e-08
-4.193040939e-08
2.34405293e-05
-4.205967444e-08
2.32704948e-05
3.131179718e-08
2.309484148e-05
-3.13075704e-08
2.326939053e-05
2.309484509e-05
4.219354111e-08
9.20674579e-09
2.304625269e-05
-4.219413176e-08
9.548671801e-09
2.334601073e-05
9.206942354e-09
2.304625215e-05
4.248962385e-08
-7.334113941e-08
2.331136516e-05
-4.2486887e-08
-7.327560964e-08
2.360912988e-05
-7.33421819e-08
2.331137085e-05
4.254873441e-08
2.297976216e-05
-4.254978819e-08
2.328202597e-05
2.297976566e-05
4.937344484e-08
-3.097705125e-08
2.302905817e-05
-4.938542386e-08
-2.988338133e-08
2.347585166e-05
-3.097353337e-08
2.30290427e-05
4.974585746e-08
-1.23115838e-07
2.3354952e-05
-4.974785416e-08
-1.225030003e-07
2.380245051e-05
-1.231177654e-07
2.335495836e-05
4.989851961e-08
2.280794228e-05
-4.990721503e-08
2.32605159e-05
2.280793168e-05
4.705663046e-08
-1.318869397e-07
2.311478124e-05
-4.708230212e-08
-1.291818542e-07
2.370012354e-05
-1.318815734e-07
2.311473341e-05
4.741578822e-08
-2.185084017e-07
2.339509074e-05
-4.742062099e-08
-2.164252673e-07
2.398551324e-05
-2.185113342e-07
2.339509888e-05
4.749188548e-08
2.254279867e-05
-4.751127545e-08
2.314000972e-05
2.254276652e-05
3.276450026e-08
-3.680874247e-07
-3.278966333e-08
-3.616275429e-07
-3.680859303e-07
3.251791225e-08
-4.358209871e-07
-3.252376539e-08
-4.29847619e-07
-4.358244273e-07
3.195865299e-08
-3.197924313e-08
)
;

boundaryField
{
    inlet
    {
        type            calculated;
        value           nonuniform List<scalar> 9(-2.3211167e-05 -2.321115162e-05 -2.321113955e-05 -2.321116546e-05 -2.321115009e-05 -2.321113798e-05 -2.3211167e-05 -2.321115162e-05 -2.321113955e-05);
    }
    outlet
    {
        type            calculated;
        value           nonuniform List<scalar> 9(2.344921883e-05 2.342953791e-05 2.207397714e-05 2.412661946e-05 2.411820161e-05 2.277326943e-05 2.344914394e-05 2.342954493e-05 2.207391946e-05);
    }
    walls
    {
        type            calculated;
        value           uniform 0;
    }
}


// ************************************************************************* //
