/*--------------------------------*- C++ -*----------------------------------*\
  =========                 |
  \\      /  F ield         | OpenFOAM: The Open Source CFD Toolbox
   \\    /   O peration     | Website:  https://openfoam.org
    \\  /    A nd           | Version:  7
     \\/     M anipulation  |
\*---------------------------------------------------------------------------*/
FoamFile
{
    version     2.0;
    format      ascii;
    class       volScalarField;
    location    "0.055";
    object      cpavg;
}
// * * * * * * * * * * * * * * * * * * * * * * * * * * * * * * * * * * * * * //

dimensions      [0 2 -2 -1 0 0 0];

internalField   nonuniform List<scalar> 
54
(
1011.621877
1011.621877
1011.621877
1011.621878
1011.621878
1011.621878
1011.62188
1011.621879
1011.62188
1011.63697
1011.63697
1011.63697
1011.636972
1011.636972
1011.636972
1011.636975
1011.636974
1011.636975
1011.662569
1011.662569
1011.662569
1011.662574
1011.662573
1011.662574
1011.662579
1011.662578
1011.662579
1011.691433
1011.691432
1011.691433
1011.69144
1011.691439
1011.69144
1011.691449
1011.691448
1011.691449
1011.715959
1011.715958
1011.715959
1011.71597
1011.715968
1011.71597
1011.715983
1011.715981
1011.715983
1011.729968
1011.729966
1011.729968
1011.729981
1011.729979
1011.729981
1011.729997
1011.729995
1011.729997
)
;

boundaryField
{
    inlet
    {
        type            calculated;
        value           uniform 1011.338357;
    }
    outlet
    {
        type            calculated;
        value           nonuniform List<scalar> 9(1011.854681 1011.851824 1011.857289 1011.850384 1011.847719 1011.852797 1011.854683 1011.851824 1011.857291);
    }
    walls
    {
        type            calculated;
        value           nonuniform List<scalar> 
72
(
1011.453937
1011.563396
1011.658121
1011.734939
1011.797545
1011.854681
1011.454157
1011.563477
1011.657663
1011.733567
1011.794922
1011.850384
1011.453937
1011.563396
1011.65812
1011.73494
1011.797546
1011.854683
1011.453936
1011.563304
1011.65804
1011.735102
1011.798402
1011.857289
1011.454157
1011.563383
1011.657578
1011.733709
1011.795715
1011.852797
1011.453936
1011.563304
1011.65804
1011.735102
1011.798403
1011.857291
1011.453937
1011.454157
1011.453936
1011.563396
1011.563429
1011.563304
1011.65812
1011.657616
1011.65804
1011.73494
1011.733644
1011.735102
1011.797546
1011.795382
1011.798403
1011.854683
1011.851824
1011.857291
1011.453937
1011.454157
1011.453936
1011.563396
1011.563429
1011.563304
1011.658121
1011.657616
1011.65804
1011.734939
1011.733644
1011.735102
1011.797545
1011.795382
1011.798402
1011.854681
1011.851824
1011.857289
)
;
    }
}


// ************************************************************************* //
