/*--------------------------------*- C++ -*----------------------------------*\
  =========                 |
  \\      /  F ield         | OpenFOAM: The Open Source CFD Toolbox
   \\    /   O peration     | Website:  https://openfoam.org
    \\  /    A nd           | Version:  7
     \\/     M anipulation  |
\*---------------------------------------------------------------------------*/
FoamFile
{
    version     2.0;
    format      ascii;
    class       volScalarField;
    location    "0.055";
    object      p;
}
// * * * * * * * * * * * * * * * * * * * * * * * * * * * * * * * * * * * * * //

dimensions      [1 -1 -2 0 0 0 0];

internalField   nonuniform List<scalar> 
54
(
101329.143
101329.1363
101329.143
101329.0759
101329.0692
101329.0759
101329.0232
101329.0163
101329.0232
101327.6105
101327.6061
101327.6105
101327.5437
101327.5392
101327.5437
101327.487
101327.4823
101327.487
101326.4427
101326.4384
101326.4427
101326.3769
101326.3724
101326.3769
101326.3212
101326.3166
101326.3212
101325.8569
101325.8536
101325.8569
101325.7967
101325.7932
101325.7967
101325.7438
101325.7402
101325.7438
101325.5168
101325.5155
101325.5168
101325.4676
101325.4662
101325.4676
101325.42
101325.4183
101325.42
101325.1947
101325.196
101325.1947
101325.1643
101325.1654
101325.1643
101325.13
101325.1307
101325.13
)
;

boundaryField
{
    inlet
    {
        type            zeroGradient;
    }
    outlet
    {
        type            totalPressure;
        rho             rho;
        psi             none;
        gamma           1;
        p0              uniform 101325;
        value           uniform 101325;
    }
    walls
    {
        type            zeroGradient;
    }
}


// ************************************************************************* //
