/*--------------------------------*- C++ -*----------------------------------*\
  =========                 |
  \\      /  F ield         | OpenFOAM: The Open Source CFD Toolbox
   \\    /   O peration     | Website:  https://openfoam.org
    \\  /    A nd           | Version:  7
     \\/     M anipulation  |
\*---------------------------------------------------------------------------*/
FoamFile
{
    version     2.0;
    format      ascii;
    class       surfaceScalarField;
    location    "0.055";
    object      rhoPhi;
}
// * * * * * * * * * * * * * * * * * * * * * * * * * * * * * * * * * * * * * //

dimensions      [1 0 -1 0 0 0 0];

internalField   nonuniform List<scalar> 
117
(
4.184322396e-08
5.78029196e-08
3.575350976e-05
-4.183888038e-08
5.702507983e-08
3.591683798e-05
5.780320838e-08
3.575351292e-05
4.12323416e-08
-2.635658267e-08
3.593274564e-05
-4.122826915e-08
-2.572740544e-08
3.609759757e-05
-2.635684396e-08
3.593274723e-05
4.211004342e-08
3.578399431e-05
-4.210559461e-08
3.594795657e-05
3.578399627e-05
4.70634725e-08
3.115175173e-08
3.370670686e-05
-4.705748308e-08
3.088691016e-08
3.399029714e-05
3.1152216e-08
3.370671472e-05
4.70122807e-08
-6.370174516e-08
3.39904965e-05
-4.700563986e-08
-6.358181417e-08
3.427383696e-05
-6.370226884e-08
3.399049921e-05
4.742386973e-08
3.370379781e-05
-4.741746799e-08
3.398888624e-05
3.370380308e-05
5.946158128e-08
1.297467927e-08
3.120301791e-05
-5.946241366e-08
1.346656925e-08
3.162494202e-05
1.297495628e-08
3.120301718e-05
5.992346096e-08
-1.033565804e-07
3.157801049e-05
-5.991960116e-08
-1.033411863e-07
3.199944296e-05
-1.033580495e-07
3.157801819e-05
5.996214026e-08
3.111299437e-05
-5.996362529e-08
3.153826707e-05
3.111299911e-05
6.435434387e-08
-4.037611341e-08
2.909266899e-05
-6.436995757e-08
-3.896400673e-08
2.966386203e-05
-4.037152813e-08
2.909264944e-05
6.486206843e-08
-1.604716665e-07
2.951109436e-05
-6.486467187e-08
-1.597278326e-07
3.008394364e-05
-1.604741787e-07
2.951110241e-05
6.503873692e-08
2.881333271e-05
-6.505007071e-08
2.939176582e-05
2.881331932e-05
5.768445221e-08
-1.616738342e-07
2.787029376e-05
-5.771592187e-08
-1.583793323e-07
2.857876922e-05
-1.616672559e-07
2.787023609e-05
5.813262958e-08
-2.678589039e-07
2.821094574e-05
-5.813855464e-08
-2.653413635e-07
2.892578982e-05
-2.678624987e-07
2.821095555e-05
5.821801034e-08
2.718063453e-05
-5.824177956e-08
2.790335655e-05
2.718059577e-05
3.88710778e-08
-4.366907723e-07
-3.890093071e-08
-4.290525444e-07
-4.366889994e-07
3.858083618e-08
-5.170483713e-07
-3.858778063e-08
-5.09992168e-07
-5.170524527e-07
3.791503844e-08
-3.793946613e-08
)
;

boundaryField
{
    inlet
    {
        type            calculated;
        value           nonuniform List<scalar> 9(-3.659598198e-05 -3.663646761e-05 -3.659593869e-05 -3.663648945e-05 -3.668178091e-05 -3.663644608e-05 -3.659598198e-05 -3.663646761e-05 -3.659593869e-05);
    }
    outlet
    {
        type            calculated;
        value           nonuniform List<scalar> 9(2.781881842e-05 2.779710019e-05 2.618730996e-05 2.862412656e-05 2.861588059e-05 2.701849496e-05 2.781872957e-05 2.779710852e-05 2.618724153e-05);
    }
    walls
    {
        type            calculated;
        value           uniform 0;
    }
}


// ************************************************************************* //
