/*--------------------------------*- C++ -*----------------------------------*\
  =========                 |
  \\      /  F ield         | OpenFOAM: The Open Source CFD Toolbox
   \\    /   O peration     | Website:  https://openfoam.org
    \\  /    A nd           | Version:  7
     \\/     M anipulation  |
\*---------------------------------------------------------------------------*/
FoamFile
{
    version     2.0;
    format      ascii;
    class       volScalarField;
    location    "0.055";
    object      Tavg;
}
// * * * * * * * * * * * * * * * * * * * * * * * * * * * * * * * * * * * * * //

dimensions      [0 0 0 1 0 0 0];

internalField   nonuniform List<scalar> 
54
(
302.8454774
302.8454767
302.8454774
302.845499
302.8454983
302.845499
302.8455219
302.8455212
302.8455219
303.0974219
303.0974191
303.0974219
303.0974579
303.0974552
303.097458
303.0974995
303.0974967
303.0974995
303.5242257
303.5242186
303.5242258
303.5242934
303.5242863
303.5242934
303.524375
303.5243679
303.5243751
304.0046804
304.0046671
304.0046806
304.0047966
304.0047833
304.0047968
304.0049389
304.0049255
304.004939
304.4122941
304.412274
304.4122943
304.4124654
304.4124453
304.4124657
304.4126758
304.4126556
304.4126761
304.6448524
304.6448275
304.6448527
304.6450629
304.645038
304.6450632
304.6453215
304.6452963
304.6453218
)
;

boundaryField
{
    inlet
    {
        type            fixedValue;
        value           uniform 298;
    }
    outlet
    {
        type            zeroGradient;
    }
    walls
    {
        type            zeroGradient;
    }
}


// ************************************************************************* //
