/*--------------------------------*- C++ -*----------------------------------*\
  =========                 |
  \\      /  F ield         | OpenFOAM: The Open Source CFD Toolbox
   \\    /   O peration     | Website:  https://openfoam.org
    \\  /    A nd           | Version:  7
     \\/     M anipulation  |
\*---------------------------------------------------------------------------*/
FoamFile
{
    version     2.0;
    format      ascii;
    class       volVectorField;
    location    "0.055";
    object      Uavg;
}
// * * * * * * * * * * * * * * * * * * * * * * * * * * * * * * * * * * * * * //

dimensions      [0 1 -1 0 0 0 0];

internalField   nonuniform List<vector> 
54
(
(1.247335444 5.102628086e-05 -0.0101999052)
(1.24733959 1.602944911e-07 -0.01019991024)
(1.247335443 -5.07052445e-05 -0.01019990537)
(1.247302269 5.099281431e-05 -0.0102462143)
(1.24730642 1.604881173e-07 -0.01024621649)
(1.247302269 -5.067138912e-05 -0.01024621458)
(1.247260794 5.096286289e-05 -0.01030937237)
(1.247264945 1.606699463e-07 -0.01030937411)
(1.247260794 -5.064107359e-05 -0.01030937275)
(1.219635462 5.355023436e-05 -0.01123075244)
(1.21963993 1.438217303e-07 -0.01123075247)
(1.219635457 -5.326194389e-05 -0.01123075243)
(1.2195733 5.350043081e-05 -0.0112795116)
(1.219577772 1.442349107e-07 -0.01127950957)
(1.219573294 -5.321131398e-05 -0.01127951185)
(1.219502232 5.345232484e-05 -0.01134649249)
(1.219506708 1.44595753e-07 -0.01134649119)
(1.219502227 -5.316248588e-05 -0.01134649301)
(1.182715016 5.973582112e-05 -0.01318626389)
(1.182720625 1.153916015e-07 -0.01318625014)
(1.182715 -5.950386954e-05 -0.01318626353)
(1.182590765 5.96461895e-05 -0.0132406954)
(1.182596383 1.162811195e-07 -0.01324068104)
(1.182590749 -5.941246437e-05 -0.01324069563)
(1.18245546 5.955458379e-05 -0.01331705441)
(1.182461087 1.170163166e-07 -0.01331704327)
(1.182455445 -5.931938889e-05 -0.01331705523)
(1.159960796 7.134670053e-05 -0.01574373168)
(1.159969846 8.398419787e-08 -0.01574369109)
(1.159960764 -7.117641917e-05 -0.01574373079)
(1.159743408 7.118536912e-05 -0.01580616157)
(1.15975248 8.559185334e-08 -0.01580612084)
(1.159743377 -7.101189516e-05 -0.0158061618)
(1.159508373 7.101564432e-05 -0.01590206438)
(1.159517468 8.684182532e-08 -0.01590203334)
(1.159508342 -7.083967323e-05 -0.01590206577)
(1.15789877 8.496762147e-05 -0.01822806183)
(1.157912409 5.961394432e-08 -0.0182279869)
(1.157898721 -8.484474799e-05 -0.01822806064)
(1.157577706 8.47211846e-05 -0.01829889366)
(1.157591387 6.188525486e-08 -0.01829881758)
(1.157577659 -8.459380677e-05 -0.01829889411)
(1.157230153 8.445986679e-05 -0.01841857823)
(1.157243877 6.358510377e-08 -0.01841851971)
(1.157230106 -8.432909138e-05 -0.0184185804)
(1.16351783 9.37039256e-05 -0.01977714417)
(1.163534518 4.729615629e-08 -0.01977704228)
(1.16351777 -9.360485803e-05 -0.01977714298)
(1.163123498 9.339878991e-05 -0.01985361988)
(1.163140245 4.992339089e-08 -0.01985351526)
(1.16312344 -9.329451134e-05 -0.01985362062)
(1.162696803 9.307523969e-05 -0.01998857072)
(1.162713611 5.186649231e-08 -0.01998848873)
(1.162696746 -9.296707555e-05 -0.01998857349)
)
;

boundaryField
{
    inlet
    {
        type            interstitialInletVelocity;
        inletVelocity   uniform (1.23 0 0);
        value           uniform (1.23 0 0);
    }
    outlet
    {
        type            pressureInletOutletVelocity;
        phi             alphaRhoPhi;
        value           nonuniform List<vector> 9((1.505667401 0.005050652425 -0.05986489499) (1.511489594 0.004940013374 0.005923776836) (1.433692646 0.004676624211 -0.071402432) (1.548530265 -4.181445229e-06 -0.05974397025) (1.555021808 -2.870266246e-06 0.006773914274) (1.477844491 -3.873839072e-06 -0.0714296034) (1.505659073 -0.005047120299 -0.05986434984) (1.511490276 -0.004935149342 0.00592391912) (1.433686422 -0.004672758003 -0.07140368992));
    }
    walls
    {
        type            noSlip;
    }
}


// ************************************************************************* //
