/*--------------------------------*- C++ -*----------------------------------*\
  =========                 |
  \\      /  F ield         | OpenFOAM: The Open Source CFD Toolbox
   \\    /   O peration     | Website:  https://openfoam.org
    \\  /    A nd           | Version:  7
     \\/     M anipulation  |
\*---------------------------------------------------------------------------*/
FoamFile
{
    version     2.0;
    format      ascii;
    class       volScalarField;
    location    "0.085";
    object      cpavg;
}
// * * * * * * * * * * * * * * * * * * * * * * * * * * * * * * * * * * * * * //

dimensions      [0 2 -2 -1 0 0 0];

internalField   nonuniform List<scalar> 
54
(
1011.623339
1011.623339
1011.623339
1011.62334
1011.62334
1011.62334
1011.623341
1011.623341
1011.623341
1011.638529
1011.638529
1011.638529
1011.638531
1011.63853
1011.638531
1011.638533
1011.638533
1011.638533
1011.664277
1011.664276
1011.664277
1011.66428
1011.66428
1011.66428
1011.664284
1011.664284
1011.664284
1011.693277
1011.693276
1011.693277
1011.693283
1011.693282
1011.693283
1011.69329
1011.693289
1011.69329
1011.717884
1011.717883
1011.717884
1011.717893
1011.717891
1011.717893
1011.717904
1011.717903
1011.717904
1011.731921
1011.731919
1011.731921
1011.731932
1011.73193
1011.731932
1011.731945
1011.731944
1011.731945
)
;

boundaryField
{
    inlet
    {
        type            calculated;
        value           uniform 1011.338357;
    }
    outlet
    {
        type            calculated;
        value           nonuniform List<scalar> 9(1011.854779 1011.852196 1011.856949 1011.850981 1011.84857 1011.852996 1011.854779 1011.852196 1011.856948);
    }
    walls
    {
        type            calculated;
        value           nonuniform List<scalar> 
72
(
1011.454034
1011.564157
1011.660214
1011.738529
1011.801255
1011.854779
1011.454255
1011.564233
1011.659738
1011.737138
1011.798726
1011.850981
1011.454034
1011.564157
1011.660214
1011.738529
1011.801255
1011.854779
1011.454034
1011.564063
1011.660128
1011.738674
1011.802026
1011.856949
1011.454254
1011.564137
1011.659646
1011.737263
1011.799439
1011.852996
1011.454034
1011.564063
1011.660128
1011.738673
1011.802026
1011.856948
1011.454034
1011.454254
1011.454034
1011.564157
1011.564184
1011.564063
1011.660214
1011.659688
1011.660128
1011.738529
1011.737209
1011.738673
1011.801255
1011.799146
1011.802026
1011.854779
1011.852196
1011.856948
1011.454034
1011.454254
1011.454034
1011.564157
1011.564184
1011.564063
1011.660214
1011.659688
1011.660128
1011.738529
1011.737209
1011.738674
1011.801255
1011.799146
1011.802026
1011.854779
1011.852196
1011.856949
)
;
    }
}


// ************************************************************************* //
