/*--------------------------------*- C++ -*----------------------------------*\
  =========                 |
  \\      /  F ield         | OpenFOAM: The Open Source CFD Toolbox
   \\    /   O peration     | Website:  https://openfoam.org
    \\  /    A nd           | Version:  7
     \\/     M anipulation  |
\*---------------------------------------------------------------------------*/
FoamFile
{
    version     2.0;
    format      ascii;
    class       volScalarField;
    location    "0.085";
    object      kappaavg;
}
// * * * * * * * * * * * * * * * * * * * * * * * * * * * * * * * * * * * * * //

dimensions      [1 1 -3 -1 0 0 0];

internalField   nonuniform List<scalar> 
54
(
0.02726778731
0.02726778726
0.02726778731
0.02726778864
0.02726778859
0.02726778864
0.02726779007
0.02726779002
0.02726779007
0.02728778973
0.02728778952
0.02728778973
0.02728779202
0.0272877918
0.02728779201
0.02728779472
0.0272877945
0.02728779472
0.0273216501
0.02732164956
0.0273216501
0.02732165448
0.02732165394
0.02732165448
0.02732165992
0.02732165937
0.02732165992
0.0273597205
0.0273597195
0.0273597205
0.0273597281
0.02735972711
0.0273597281
0.02735973765
0.02735973664
0.02735973765
0.02739196942
0.02739196795
0.02739196942
0.02739198069
0.02739197921
0.02739198068
0.0273919948
0.02739199332
0.0273919948
0.0274103428
0.027410341
0.0274103428
0.02741035666
0.02741035486
0.02741035665
0.02741037397
0.02741037215
0.02741037396
)
;

boundaryField
{
    inlet
    {
        type            calculated;
        value           uniform 0.02688265352;
    }
    outlet
    {
        type            calculated;
        value           nonuniform List<scalar> 9(0.02756959237 0.02756631592 0.02757234285 0.02756477469 0.02756171498 0.02756733077 0.0275695922 0.02756631573 0.02757234268);
    }
    walls
    {
        type            calculated;
        value           nonuniform List<scalar> 
72
(
0.02704250211
0.02719130746
0.02731857161
0.0274206671
0.02750140497
0.02756959237
0.02704280311
0.02719140843
0.02731794638
0.02741886712
0.02749816745
0.02756477469
0.02704250211
0.02719130747
0.0273185716
0.02742066701
0.02750140481
0.0275695922
0.0270425018
0.02719118153
0.02731845897
0.02742085434
0.02750239185
0.02757234285
0.02704280278
0.0271912806
0.02731782615
0.02741902873
0.0274990796
0.02756733077
0.0270425018
0.02719118154
0.02731845897
0.02742085424
0.02750239169
0.02757234268
0.02704250211
0.02704280293
0.0270425018
0.02719130747
0.02719134297
0.02719118154
0.0273185716
0.0273178814
0.02731845897
0.02742066701
0.02741895798
0.02742085424
0.02750140481
0.02749870504
0.02750239169
0.0275695922
0.02756631573
0.02757234268
0.02704250211
0.02704280293
0.0270425018
0.02719130746
0.02719134297
0.02719118153
0.02731857161
0.0273178814
0.02731845897
0.0274206671
0.02741895807
0.02742085434
0.02750140497
0.0274987052
0.02750239185
0.02756959237
0.02756631592
0.02757234285
)
;
    }
}


// ************************************************************************* //
