/*--------------------------------*- C++ -*----------------------------------*\
  =========                 |
  \\      /  F ield         | OpenFOAM: The Open Source CFD Toolbox
   \\    /   O peration     | Website:  https://openfoam.org
    \\  /    A nd           | Version:  7
     \\/     M anipulation  |
\*---------------------------------------------------------------------------*/
FoamFile
{
    version     2.0;
    format      ascii;
    class       volScalarField;
    location    "0.085";
    object      muavg;
}
// * * * * * * * * * * * * * * * * * * * * * * * * * * * * * * * * * * * * * //

dimensions      [1 -1 -1 0 0 0 0];

internalField   nonuniform List<scalar> 
54
(
1.86118154e-05
1.861181536e-05
1.86118154e-05
1.861181629e-05
1.861181625e-05
1.861181629e-05
1.861181725e-05
1.861181721e-05
1.861181724e-05
1.862521293e-05
1.862521278e-05
1.862521293e-05
1.862521445e-05
1.862521431e-05
1.862521445e-05
1.862521626e-05
1.862521612e-05
1.862521626e-05
1.864789156e-05
1.86478912e-05
1.864789156e-05
1.864789449e-05
1.864789413e-05
1.864789449e-05
1.864789813e-05
1.864789776e-05
1.864789813e-05
1.867338866e-05
1.867338799e-05
1.867338866e-05
1.867339375e-05
1.867339308e-05
1.867339375e-05
1.867340014e-05
1.867339946e-05
1.867340014e-05
1.869498585e-05
1.869498486e-05
1.869498585e-05
1.869499339e-05
1.86949924e-05
1.869499339e-05
1.869500283e-05
1.869500184e-05
1.869500283e-05
1.870729011e-05
1.870728891e-05
1.870729011e-05
1.870729938e-05
1.870729817e-05
1.870729938e-05
1.870731096e-05
1.870730975e-05
1.870731096e-05
)
;

boundaryField
{
    inlet
    {
        type            calculated;
        value           uniform 1.835366622e-05;
    }
    outlet
    {
        type            calculated;
        value           nonuniform List<scalar> 9(1.881390577e-05 1.881171365e-05 1.881574597e-05 1.881068247e-05 1.880863532e-05 1.881239265e-05 1.881390566e-05 1.881171352e-05 1.881574586e-05);
    }
    walls
    {
        type            calculated;
        value           nonuniform List<scalar> 
72
(
1.846087555e-05
1.85606174e-05
1.864587333e-05
1.871423661e-05
1.876827855e-05
1.881390577e-05
1.846107736e-05
1.856068506e-05
1.864545459e-05
1.871303159e-05
1.876611186e-05
1.881068247e-05
1.846087555e-05
1.85606174e-05
1.864587332e-05
1.871423655e-05
1.876827844e-05
1.881390566e-05
1.846087534e-05
1.856053302e-05
1.864579789e-05
1.871436196e-05
1.876893901e-05
1.881574597e-05
1.846107714e-05
1.85605994e-05
1.864537406e-05
1.871313979e-05
1.876672231e-05
1.881239265e-05
1.846087534e-05
1.856053302e-05
1.864579789e-05
1.87143619e-05
1.87689389e-05
1.881574586e-05
1.846087555e-05
1.846107724e-05
1.846087534e-05
1.85606174e-05
1.856064119e-05
1.856053302e-05
1.864587332e-05
1.864541107e-05
1.864579789e-05
1.871423655e-05
1.871309242e-05
1.87143619e-05
1.876827844e-05
1.876647164e-05
1.87689389e-05
1.881390566e-05
1.881171352e-05
1.881574586e-05
1.846087555e-05
1.846107724e-05
1.846087534e-05
1.85606174e-05
1.856064119e-05
1.856053302e-05
1.864587333e-05
1.864541107e-05
1.864579789e-05
1.871423661e-05
1.871309248e-05
1.871436196e-05
1.876827855e-05
1.876647175e-05
1.876893901e-05
1.881390577e-05
1.881171365e-05
1.881574597e-05
)
;
    }
}


// ************************************************************************* //
