/*--------------------------------*- C++ -*----------------------------------*\
  =========                 |
  \\      /  F ield         | OpenFOAM: The Open Source CFD Toolbox
   \\    /   O peration     | Website:  https://openfoam.org
    \\  /    A nd           | Version:  7
     \\/     M anipulation  |
\*---------------------------------------------------------------------------*/
FoamFile
{
    version     2.0;
    format      ascii;
    class       volScalarField;
    location    "0.085";
    object      p;
}
// * * * * * * * * * * * * * * * * * * * * * * * * * * * * * * * * * * * * * //

dimensions      [1 -1 -2 0 0 0 0];

internalField   nonuniform List<scalar> 
54
(
101329.1364
101329.1296
101329.1364
101329.0692
101329.0626
101329.0692
101329.0165
101329.0097
101329.0165
101327.6061
101327.6016
101327.6061
101327.5393
101327.5348
101327.5393
101327.4826
101327.4779
101327.4826
101326.4402
101326.4358
101326.4402
101326.3743
101326.3698
101326.3743
101326.3186
101326.314
101326.3186
101325.8555
101325.8522
101325.8555
101325.7952
101325.7918
101325.7952
101325.7424
101325.7387
101325.7424
101325.516
101325.5148
101325.516
101325.4668
101325.4654
101325.4668
101325.4192
101325.4175
101325.4192
101325.1945
101325.1957
101325.1945
101325.164
101325.1651
101325.164
101325.1297
101325.1305
101325.1297
)
;

boundaryField
{
    inlet
    {
        type            zeroGradient;
    }
    outlet
    {
        type            totalPressure;
        rho             rho;
        psi             none;
        gamma           1;
        p0              uniform 101325;
        value           uniform 101325;
    }
    walls
    {
        type            zeroGradient;
    }
}


// ************************************************************************* //
