/*--------------------------------*- C++ -*----------------------------------*\
  =========                 |
  \\      /  F ield         | OpenFOAM: The Open Source CFD Toolbox
   \\    /   O peration     | Website:  https://openfoam.org
    \\  /    A nd           | Version:  7
     \\/     M anipulation  |
\*---------------------------------------------------------------------------*/
FoamFile
{
    version     2.0;
    format      ascii;
    class       surfaceScalarField;
    location    "0.085";
    object      phi;
}
// * * * * * * * * * * * * * * * * * * * * * * * * * * * * * * * * * * * * * //

dimensions      [0 3 -1 0 0 0 0];

internalField   nonuniform List<scalar> 
117
(
3.576119845e-08
4.937978227e-08
3.061481368e-05
-3.576060821e-08
4.871907148e-08
3.075505888e-05
4.938054961e-08
3.061481276e-05
3.524331006e-08
-2.254666946e-08
3.076864979e-05
-3.524166195e-08
-2.201094166e-08
3.091030266e-05
-2.254706315e-08
3.076864979e-05
3.599047816e-08
3.064086263e-05
-3.598936531e-08
3.078165528e-05
3.064086154e-05
4.050209253e-08
2.681643064e-08
2.902953581e-05
-4.05000037e-08
2.659185057e-08
2.927380726e-05
2.681704355e-08
2.902953631e-05
4.04605941e-08
-5.479138223e-08
2.927387247e-05
-4.045816554e-08
-5.468862583e-08
2.951810355e-05
-5.479172841e-08
2.927387063e-05
4.08137894e-08
2.902689569e-05
-4.081127649e-08
2.927246586e-05
2.902689447e-05
5.148119876e-08
1.133811886e-08
2.70013602e-05
-5.147996095e-08
1.176847938e-08
2.736581619e-05
1.133745386e-08
2.700135687e-05
5.187910304e-08
-8.93398418e-08
2.732515894e-05
-5.187705499e-08
-8.932012091e-08
2.768938598e-05
-8.934041308e-08
2.732515885e-05
5.191667777e-08
2.692354936e-05
-5.19164338e-08
2.729092364e-05
2.692354994e-05
5.599554228e-08
-3.47321328e-08
2.526959071e-05
-5.599365623e-08
-3.348840135e-08
2.576425808e-05
-3.47322593e-08
2.526959096e-05
5.64246569e-08
-1.391483572e-07
2.563187392e-05
-5.64237609e-08
-1.384742582e-07
2.612815281e-05
-1.391487135e-07
2.563187195e-05
5.658885335e-08
2.502788859e-05
-5.658690769e-08
2.55288985e-05
2.502788658e-05
5.039650424e-08
-1.403224369e-07
2.428151146e-05
-5.039781815e-08
-1.373821582e-07
2.48962966e-05
-1.403214473e-07
2.42815093e-05
5.076564938e-08
-2.329104252e-07
2.457690746e-05
-5.076366392e-08
-2.306226722e-07
2.519739502e-05
-2.329100685e-07
2.457690654e-05
5.084964263e-08
2.368326414e-05
-5.084903499e-08
2.431062565e-05
2.368326377e-05
3.415881041e-08
-3.807282454e-07
-3.415830145e-08
-3.738113643e-07
-3.807290537e-07
3.385755201e-08
-4.511711583e-07
-3.385720236e-08
-4.447164293e-07
-4.511713815e-07
3.325691875e-08
-3.325671676e-08
)
;

boundaryField
{
    inlet
    {
        type            calculated;
        value           nonuniform List<scalar> 9(-3.102855299e-05 -3.106290004e-05 -3.102855299e-05 -3.106290004e-05 -3.11013218e-05 -3.106290004e-05 -3.102855299e-05 -3.106290004e-05 -3.102855299e-05);
    }
    outlet
    {
        type            calculated;
        value           nonuniform List<scalar> 9(2.42715554e-05 2.425141222e-05 2.285187203e-05 2.497117694e-05 2.49630156e-05 2.357456006e-05 2.427155528e-05 2.42514109e-05 2.285187051e-05);
    }
    walls
    {
        type            calculated;
        value           uniform 0;
    }
}


// ************************************************************************* //
