/*--------------------------------*- C++ -*----------------------------------*\
  =========                 |
  \\      /  F ield         | OpenFOAM: The Open Source CFD Toolbox
   \\    /   O peration     | Website:  https://openfoam.org
    \\  /    A nd           | Version:  7
     \\/     M anipulation  |
\*---------------------------------------------------------------------------*/
FoamFile
{
    version     2.0;
    format      ascii;
    class       surfaceScalarField;
    location    "0.085";
    object      rhoPhi;
}
// * * * * * * * * * * * * * * * * * * * * * * * * * * * * * * * * * * * * * //

dimensions      [1 0 -1 0 0 0 0];

internalField   nonuniform List<scalar> 
117
(
4.189399034e-08
5.784804768e-08
3.575324724e-05
-4.189329887e-08
5.707326089e-08
3.591672539e-05
5.784894661e-08
3.575324616e-05
4.128670717e-08
-2.641324013e-08
3.593262481e-05
-4.128477646e-08
-2.578529194e-08
3.609764179e-05
-2.641370134e-08
3.593262481e-05
4.216254056e-08
3.578371969e-05
-4.216123687e-08
3.594783855e-05
3.578371842e-05
4.715172475e-08
3.121918457e-08
3.370574176e-05
-4.714929297e-08
3.095753526e-08
3.398973081e-05
3.121989811e-08
3.370574234e-05
4.710321303e-08
-6.378722694e-08
3.398987853e-05
-4.710038576e-08
-6.366719614e-08
3.427364686e-05
-6.378762995e-08
3.398987639e-05
4.751479075e-08
3.370280387e-05
-4.751186526e-08
3.398830858e-05
3.370280244e-05
5.961530477e-08
1.312957234e-08
3.120068804e-05
-5.961387139e-08
1.362824326e-08
3.16234215e-05
1.312880227e-08
3.120068424e-05
6.00775817e-08
-1.034559601e-07
3.157640354e-05
-6.007520998e-08
-1.034355095e-07
3.199868479e-05
-1.034566216e-07
3.157640347e-05
6.011981033e-08
3.111069212e-05
-6.01195278e-08
3.153681393e-05
3.111069282e-05
6.456859946e-08
-4.004962181e-08
2.908842449e-05
-6.456642473e-08
-3.861821836e-08
2.966095476e-05
-4.004976778e-08
2.908842491e-05
6.506775158e-08
-1.604512534e-07
2.950814766e-05
-6.506671842e-08
-1.596853816e-07
3.008237527e-05
-1.604516647e-07
2.950814551e-05
6.525220094e-08
2.880946322e-05
-6.524995751e-08
2.938931256e-05
2.880946104e-05
5.791896244e-08
-1.612658913e-07
2.786451865e-05
-5.792047264e-08
-1.579073153e-07
2.857480155e-05
-1.612647549e-07
2.786451636e-05
5.834946844e-08
-2.676672378e-07
2.820699414e-05
-5.834718656e-08
-2.650729887e-07
2.892370735e-05
-2.676668296e-07
2.820699328e-05
5.84373765e-08
2.717586548e-05
-5.843667837e-08
2.79005667e-05
2.717586524e-05
3.914766191e-08
-4.363191081e-07
-3.914707877e-08
-4.284760466e-07
-4.363200378e-07
3.880749845e-08
-5.17017872e-07
-3.880709783e-08
-5.097227992e-07
-5.170181319e-07
3.810983119e-08
-3.810959988e-08
)
;

boundaryField
{
    inlet
    {
        type            calculated;
        value           nonuniform List<scalar> 9(-3.659597959e-05 -3.663646521e-05 -3.65959363e-05 -3.663648705e-05 -3.66817785e-05 -3.663644368e-05 -3.659597959e-05 -3.663646521e-05 -3.65959363e-05);
    }
    outlet
    {
        type            calculated;
        value           nonuniform List<scalar> 9(2.78135506e-05 2.779424882e-05 2.618370285e-05 2.862099268e-05 2.861527442e-05 2.701737978e-05 2.781355067e-05 2.779424753e-05 2.618370132e-05);
    }
    walls
    {
        type            calculated;
        value           uniform 0;
    }
}


// ************************************************************************* //
