/*--------------------------------*- C++ -*----------------------------------*\
  =========                 |
  \\      /  F ield         | OpenFOAM: The Open Source CFD Toolbox
   \\    /   O peration     | Website:  https://openfoam.org
    \\  /    A nd           | Version:  7
     \\/     M anipulation  |
\*---------------------------------------------------------------------------*/
FoamFile
{
    version     2.0;
    format      ascii;
    class       volVectorField::Internal;
    location    "0.085";
    object      steelCloud:UTrans;
}
// * * * * * * * * * * * * * * * * * * * * * * * * * * * * * * * * * * * * * //

dimensions      [1 1 -1 0 0 0 0];

value           nonuniform List<vector> 
54
(
(-6.36512101e-08 -3.147792123e-15 -2.919860479e-10)
(-6.377326035e-08 -3.153827967e-15 -2.925459268e-10)
(-6.36512101e-08 -3.147792123e-15 -2.919860479e-10)
(-6.377326035e-08 -3.153827967e-15 -2.925459268e-10)
(-6.39094704e-08 -3.160564068e-15 -2.931707608e-10)
(-6.377326035e-08 -3.153827967e-15 -2.925459268e-10)
(-6.36512101e-08 -3.147792123e-15 -2.919860479e-10)
(-6.377326035e-08 -3.153827967e-15 -2.925459268e-10)
(-6.36512101e-08 -3.147792123e-15 -2.919860479e-10)
(-5.90633002e-08 -2.920902695e-15 -2.709400116e-10)
(-5.918968504e-08 -2.927152901e-15 -2.715197745e-10)
(-5.90633002e-08 -2.920902695e-15 -2.709400116e-10)
(-5.918968504e-08 -2.927152901e-15 -2.715197745e-10)
(-5.933555871e-08 -2.934366904e-15 -2.721889381e-10)
(-5.918968504e-08 -2.927152901e-15 -2.715197745e-10)
(-5.90633002e-08 -2.920902695e-15 -2.709400116e-10)
(-5.918968504e-08 -2.927152901e-15 -2.715197745e-10)
(-5.90633002e-08 -2.920902695e-15 -2.709400116e-10)
(-5.049657124e-08 -2.497245676e-15 -2.316420104e-10)
(-5.058320904e-08 -2.501530241e-15 -2.320394424e-10)
(-5.049657124e-08 -2.497245675e-15 -2.316420104e-10)
(-5.058320904e-08 -2.501530241e-15 -2.320394424e-10)
(-5.06804902e-08 -2.506341161e-15 -2.324856985e-10)
(-5.058320904e-08 -2.501530241e-15 -2.320394424e-10)
(-5.049657124e-08 -2.497245675e-15 -2.316420104e-10)
(-5.058320904e-08 -2.501530241e-15 -2.320394424e-10)
(-5.049657124e-08 -2.497245676e-15 -2.316420104e-10)
(-4.04903678e-08 -2.002401221e-15 -1.857407338e-10)
(-4.053438289e-08 -2.004577933e-15 -1.859426435e-10)
(-4.04903678e-08 -2.002401221e-15 -1.857407338e-10)
(-4.053438289e-08 -2.004577933e-15 -1.859426435e-10)
(-4.058223668e-08 -2.006944483e-15 -1.861621623e-10)
(-4.053438289e-08 -2.004577933e-15 -1.859426435e-10)
(-4.04903678e-08 -2.002401221e-15 -1.857407338e-10)
(-4.053438289e-08 -2.004577933e-15 -1.859426435e-10)
(-4.04903678e-08 -2.002401221e-15 -1.857407338e-10)
(-3.205429173e-08 -1.585205479e-15 -1.470420742e-10)
(-3.207304185e-08 -1.586132743e-15 -1.471280863e-10)
(-3.205429173e-08 -1.585205479e-15 -1.470420742e-10)
(-3.207304185e-08 -1.586132743e-15 -1.471280863e-10)
(-3.209289311e-08 -1.587114463e-15 -1.472191497e-10)
(-3.207304185e-08 -1.586132743e-15 -1.471280863e-10)
(-3.205429173e-08 -1.585205479e-15 -1.470420742e-10)
(-3.207304185e-08 -1.586132743e-15 -1.471280863e-10)
(-3.205429173e-08 -1.585205479e-15 -1.470420742e-10)
(-2.733572894e-08 -1.351854774e-15 -1.253966963e-10)
(-2.734433158e-08 -1.352280207e-15 -1.25436159e-10)
(-2.733572894e-08 -1.351854774e-15 -1.253966963e-10)
(-2.734433158e-08 -1.352280207e-15 -1.25436159e-10)
(-2.735325648e-08 -1.352721577e-15 -1.254771001e-10)
(-2.734433158e-08 -1.352280207e-15 -1.25436159e-10)
(-2.733572894e-08 -1.351854774e-15 -1.253966963e-10)
(-2.734433158e-08 -1.352280207e-15 -1.25436159e-10)
(-2.733572894e-08 -1.351854774e-15 -1.253966963e-10)
)
;


// ************************************************************************* //
