/*--------------------------------*- C++ -*----------------------------------*\
  =========                 |
  \\      /  F ield         | OpenFOAM: The Open Source CFD Toolbox
   \\    /   O peration     | Website:  https://openfoam.org
    \\  /    A nd           | Version:  7
     \\/     M anipulation  |
\*---------------------------------------------------------------------------*/
FoamFile
{
    version     2.0;
    format      ascii;
    class       volScalarField;
    location    "0.085";
    object      Tavg;
}
// * * * * * * * * * * * * * * * * * * * * * * * * * * * * * * * * * * * * * //

dimensions      [0 0 0 1 0 0 0];

internalField   nonuniform List<scalar> 
54
(
302.8696379
302.8696372
302.8696379
302.8696548
302.8696541
302.8696548
302.869673
302.8696723
302.869673
303.1231502
303.1231475
303.1231502
303.1231793
303.1231765
303.1231793
303.1232137
303.1232109
303.1232137
303.5523525
303.5523456
303.5523525
303.5524081
303.5524012
303.5524081
303.5524773
303.5524704
303.5524773
304.0349972
304.0349845
304.0349972
304.0350939
304.0350812
304.0350939
304.0352153
304.0352025
304.0352153
304.4439032
304.4438844
304.4439032
304.4440465
304.4440277
304.4440464
304.444226
304.4442071
304.4442259
304.6768984
304.6768756
304.6768984
304.6770746
304.6770517
304.6770746
304.6772947
304.6772716
304.6772947
)
;

boundaryField
{
    inlet
    {
        type            fixedValue;
        value           uniform 298;
    }
    outlet
    {
        type            zeroGradient;
    }
    walls
    {
        type            zeroGradient;
    }
}


// ************************************************************************* //
