/*--------------------------------*- C++ -*----------------------------------*\
  =========                 |
  \\      /  F ield         | OpenFOAM: The Open Source CFD Toolbox
   \\    /   O peration     | Website:  https://openfoam.org
    \\  /    A nd           | Version:  7
     \\/     M anipulation  |
\*---------------------------------------------------------------------------*/
FoamFile
{
    version     2.0;
    format      ascii;
    class       volVectorField;
    location    "0.085";
    object      U;
}
// * * * * * * * * * * * * * * * * * * * * * * * * * * * * * * * * * * * * * //

dimensions      [0 1 -1 0 0 0 0];

internalField   nonuniform List<vector> 
54
(
(1.712887248 0.001660265206 -0.007630050164)
(1.719935349 2.165126894e-08 -0.007674543168)
(1.712887228 -0.001660268189 -0.007630017134)
(1.720328561 0.001636977418 0.003479974292)
(1.727540966 5.596263289e-08 0.00350106188)
(1.720328547 -0.001636947284 0.003479986411)
(1.713641437 0.001654295415 -0.01113218165)
(1.720706956 3.851721767e-08 -0.01113674122)
(1.713641408 -0.001654281984 -0.01113220222)
(1.802735229 0.002978816057 -0.01507870661)
(1.814631293 9.094488749e-08 -0.01513423619)
(1.802735178 -0.00297876628 -0.01507870215)
(1.815195452 0.002957427167 0.008240515513)
(1.827104069 9.557080717e-08 0.008301385121)
(1.815195441 -0.002957372468 0.008240516365)
(1.803747106 0.002950202937 -0.02139832518)
(1.815695544 1.056489338e-07 -0.02144143457)
(1.803747022 -0.002950137517 -0.02139832211)
(1.779396732 0.00418446898 -0.02278558844)
(1.797959759 5.037777841e-08 -0.02283081884)
(1.779396721 -0.004184455311 -0.02278555404)
(1.797187757 0.004174479215 0.01332840619)
(1.81572514 9.480860778e-08 0.01346216286)
(1.797187668 -0.004174421235 0.0133283618)
(1.777787997 0.00411617215 -0.03173870235)
(1.796467129 1.944489389e-08 -0.03183643217)
(1.77778797 -0.004116189456 -0.03173878156)
(1.657817584 0.005068567755 -0.03189987802)
(1.684405626 8.766105152e-08 -0.03192453179)
(1.657817435 -0.005068480802 -0.03189994465)
(1.679813412 0.005051670838 0.01700000246)
(1.706424271 2.905844994e-08 0.01725601399)
(1.679813338 -0.005051643238 0.01699996236)
(1.6492323 0.004938493777 -0.0427670493)
(1.676073692 6.900317658e-08 -0.0428948746)
(1.649232282 -0.004938425723 -0.04276702046)
(1.55074772 0.005437260774 -0.04377565683)
(1.585441133 -9.460208306e-08 -0.043739855)
(1.550747617 -0.005437274058 -0.04377551658)
(1.572893245 0.005380467342 0.01645226851)
(1.607771754 5.892993638e-08 0.01692244202)
(1.572893184 -0.005380328913 0.01645233933)
(1.527327938 0.005184933544 -0.05529793699)
(1.562558088 1.408165636e-09 -0.05541019416)
(1.52732785 -0.005184850243 -0.05529800515)
(1.5053954 0.0051029725 -0.06016857348)
(1.548455326 -5.469079308e-08 -0.06002292312)
(1.505395376 -0.005102807365 -0.06016858951)
(1.511415028 0.004983374478 0.006283643814)
(1.55515181 -5.620168289e-08 0.007149742395)
(1.511414938 -0.004983211053 0.006283601407)
(1.433529662 0.004714294673 -0.07179744095)
(1.477911376 -6.999935281e-08 -0.0717903577)
(1.43352959 -0.00471413681 -0.07179746848)
)
;

boundaryField
{
    inlet
    {
        type            interstitialInletVelocity;
        inletVelocity   uniform (1.23 0 0);
        value           nonuniform List<vector> 9((1.939284562 0 0) (1.941431252 0 0) (1.939284562 0 0) (1.941431252 0 0) (1.943832612 0 0) (1.941431252 0 0) (1.939284562 0 0) (1.941431252 0 0) (1.939284562 0 0));
    }
    outlet
    {
        type            pressureInletOutletVelocity;
        phi             alphaRhoPhi;
        value           nonuniform List<vector> 9((1.5053954 0.0051029725 -0.06016857348) (1.511415028 0.004983374478 0.006283643814) (1.433529662 0.004714294673 -0.07179744095) (1.548455326 -5.469079308e-08 -0.06002292312) (1.55515181 -5.620168289e-08 0.007149742395) (1.477911376 -6.999935281e-08 -0.0717903577) (1.505395376 -0.005102807365 -0.06016858951) (1.511414938 -0.004983211053 0.006283601407) (1.43352959 -0.00471413681 -0.07179746848));
    }
    walls
    {
        type            noSlip;
    }
}


// ************************************************************************* //
