/*--------------------------------*- C++ -*----------------------------------*\
  =========                 |
  \\      /  F ield         | OpenFOAM: The Open Source CFD Toolbox
   \\    /   O peration     | Website:  https://openfoam.org
    \\  /    A nd           | Version:  7
     \\/     M anipulation  |
\*---------------------------------------------------------------------------*/
FoamFile
{
    version     2.0;
    format      ascii;
    class       surfaceScalarField;
    location    "0.06";
    object      alphaRhoPhi;
}
// * * * * * * * * * * * * * * * * * * * * * * * * * * * * * * * * * * * * * //

dimensions      [1 0 -1 0 0 0 0];

internalField   nonuniform List<scalar> 
117
(
2.653590879e-08
3.664884642e-08
2.314799131e-05
-2.653450376e-08
3.611410367e-08
2.322813408e-05
3.664920378e-08
2.314799185e-05
2.611892529e-08
-1.672237741e-08
2.323841625e-05
-2.611720039e-08
-1.630460039e-08
2.331581303e-05
-1.672258432e-08
2.323841675e-05
2.670556621e-08
2.316772037e-05
-2.670392867e-08
2.324825356e-05
2.316772054e-05
3.1097506e-08
2.058558632e-08
2.309641558e-05
-3.109445358e-08
2.038724728e-08
2.327004349e-05
2.058587023e-08
2.309641874e-05
3.102754419e-08
-4.208150617e-08
2.327016036e-05
-3.102439878e-08
-4.195266232e-08
2.34403105e-05
-4.208177624e-08
2.327016075e-05
3.133610065e-08
2.309441009e-05
-3.133287783e-08
2.326907064e-05
2.309441168e-05
4.223601613e-08
9.261114696e-09
2.304524883e-05
-4.223469616e-08
9.604599576e-09
2.334523762e-05
9.260837345e-09
2.304524903e-05
4.253159992e-08
-7.335342063e-08
2.33105712e-05
-4.252868709e-08
-7.328644009e-08
2.360857689e-05
-7.335409575e-08
2.331057476e-05
4.259200943e-08
2.297878975e-05
-4.259130825e-08
2.328129479e-05
2.297879314e-05
4.943101916e-08
-3.085384998e-08
2.302730543e-05
-4.943486993e-08
-2.975380767e-08
2.347448092e-05
-3.085234127e-08
2.302730116e-05
4.979957316e-08
-1.230629019e-07
2.335360267e-05
-4.979909083e-08
-1.22442589e-07
2.380149161e-05
-1.230639739e-07
2.335360686e-05
4.995432038e-08
2.280640442e-05
-4.995661392e-08
2.325938109e-05
2.28064012e-05
4.711748957e-08
-1.317377194e-07
2.311266125e-05
-4.713113033e-08
-1.290085103e-07
2.369849171e-05
-1.317345308e-07
2.311263949e-05
4.746876002e-08
-2.183889992e-07
2.339353155e-05
-4.746982296e-08
-2.162761492e-07
2.398445552e-05
-2.183905351e-07
2.339353797e-05
4.754505579e-08
2.254119065e-05
-4.755454046e-08
2.313894268e-05
2.254117707e-05
3.285053352e-08
-3.679872258e-07
-3.286567815e-08
-3.614470949e-07
-3.679866033e-07
3.258408403e-08
-4.358202932e-07
-3.258745169e-08
-4.297534063e-07
-4.358224273e-07
3.20114427e-08
-3.202380876e-08
)
;

boundaryField
{
    inlet
    {
        type            calculated;
        value           nonuniform List<scalar> 9(-2.321116678e-05 -2.32111514e-05 -2.321113932e-05 -2.321116523e-05 -2.321114987e-05 -2.321113776e-05 -2.321116678e-05 -2.32111514e-05 -2.321113932e-05);
    }
    outlet
    {
        type            calculated;
        value           nonuniform List<scalar> 9(2.344795747e-05 2.342898876e-05 2.207344155e-05 2.412590342e-05 2.411822804e-05 2.277340258e-05 2.344792001e-05 2.34289944e-05 2.207341223e-05);
    }
    walls
    {
        type            calculated;
        value           uniform 0;
    }
}


// ************************************************************************* //
