/*--------------------------------*- C++ -*----------------------------------*\
  =========                 |
  \\      /  F ield         | OpenFOAM: The Open Source CFD Toolbox
   \\    /   O peration     | Website:  https://openfoam.org
    \\  /    A nd           | Version:  7
     \\/     M anipulation  |
\*---------------------------------------------------------------------------*/
FoamFile
{
    version     2.0;
    format      ascii;
    class       volScalarField;
    location    "0.06";
    object      kappaavg;
}
// * * * * * * * * * * * * * * * * * * * * * * * * * * * * * * * * * * * * * //

dimensions      [1 1 -3 -1 0 0 0];

internalField   nonuniform List<scalar> 
54
(
0.02726689981
0.02726689976
0.02726689981
0.02726690129
0.02726690124
0.02726690129
0.02726690288
0.02726690282
0.02726690288
0.02728678801
0.0272867878
0.02728678801
0.02728679053
0.02728679032
0.02728679053
0.02728679347
0.02728679325
0.02728679347
0.02732045333
0.02732045279
0.02732045334
0.02732045812
0.02732045757
0.02732045812
0.02732046397
0.02732046342
0.02732046397
0.02735830522
0.02735830422
0.02735830523
0.0273583135
0.02735831249
0.0273583135
0.02735832374
0.02735832273
0.02735832375
0.02739037369
0.02739037218
0.0273903737
0.02739038593
0.02739038442
0.02739038594
0.02739040108
0.02739039957
0.02739040109
0.02740864815
0.0274086463
0.02740864816
0.0274086632
0.02740866134
0.02740866321
0.02740868181
0.02740867994
0.02740868182
)
;

boundaryField
{
    inlet
    {
        type            calculated;
        value           uniform 0.02688265352;
    }
    outlet
    {
        type            calculated;
        value           nonuniform List<scalar> 9(0.02756774009 0.02756434529 0.02757074082 0.02756267866 0.02755951352 0.02756545843 0.02756774182 0.02756434541 0.02757074208);
    }
    walls
    {
        type            calculated;
        value           nonuniform List<scalar> 
72
(
0.02704262052
0.02719119546
0.027317684
0.02741856123
0.02749844293
0.02756774009
0.02704292197
0.02719130071
0.02731707528
0.02741679152
0.02749519391
0.02756267866
0.02704262051
0.02719119537
0.02731768382
0.02741856118
0.02749844349
0.02756774182
0.02704262021
0.02719107022
0.02731757412
0.02741875645
0.02749947155
0.02757074082
0.02704292165
0.02719117368
0.02731695813
0.02741696158
0.02749614526
0.02756545843
0.02704262021
0.02719107016
0.02731757398
0.0274187564
0.02749947194
0.02757074208
0.02704262051
0.02704292179
0.02704262021
0.02719119537
0.02719123552
0.02719107016
0.02731768382
0.02731701127
0.02731757398
0.02741856118
0.02741688506
0.0274187564
0.02749844349
0.02749574924
0.02749947194
0.02756774182
0.02756434541
0.02757074208
0.02704262052
0.02704292179
0.02704262021
0.02719119546
0.02719123554
0.02719107022
0.027317684
0.02731701134
0.02731757412
0.02741856123
0.02741688512
0.02741875645
0.02749844293
0.02749574924
0.02749947155
0.02756774009
0.02756434529
0.02757074082
)
;
    }
}


// ************************************************************************* //
