/*--------------------------------*- C++ -*----------------------------------*\
  =========                 |
  \\      /  F ield         | OpenFOAM: The Open Source CFD Toolbox
   \\    /   O peration     | Website:  https://openfoam.org
    \\  /    A nd           | Version:  7
     \\/     M anipulation  |
\*---------------------------------------------------------------------------*/
FoamFile
{
    version     2.0;
    format      ascii;
    class       surfaceScalarField;
    location    "0.06";
    object      phi;
}
// * * * * * * * * * * * * * * * * * * * * * * * * * * * * * * * * * * * * * //

dimensions      [0 3 -1 0 0 0 0];

internalField   nonuniform List<scalar> 
117
(
3.573335323e-08
4.935148708e-08
3.061510855e-05
-3.573146121e-08
4.86890476e-08
3.075527348e-05
4.93519683e-08
3.061510925e-05
3.521355486e-08
-2.251843526e-08
3.076886409e-05
-3.521122934e-08
-2.198188099e-08
3.091042914e-05
-2.251871389e-08
3.076886474e-05
3.596185661e-08
3.064115794e-05
-3.595965149e-08
3.078186746e-05
3.064115815e-05
4.045737692e-08
2.678150265e-08
2.902989715e-05
-4.045340573e-08
2.655509879e-08
2.927396608e-05
2.678187198e-08
2.902990104e-05
4.041441268e-08
-5.474722302e-08
2.927405129e-05
-4.041031566e-08
-5.464468925e-08
2.951806466e-05
-5.474757434e-08
2.927405174e-05
4.076761812e-08
2.90272673e-05
-4.076342528e-08
2.927262654e-05
2.902726923e-05
5.13999649e-08
1.127048701e-08
2.700174898e-05
-5.139835842e-08
1.169694447e-08
2.736578711e-05
1.127014945e-08
2.700174911e-05
5.179697884e-08
-8.926866458e-08
2.732518118e-05
-5.179343142e-08
-8.925159202e-08
2.768896887e-05
-8.926948597e-08
2.73251853e-05
5.183301042e-08
2.692395421e-05
-5.183215703e-08
2.729088877e-05
2.69239581e-05
5.587317286e-08
-3.487498912e-08
2.527021028e-05
-5.587752539e-08
-3.364079686e-08
2.576413679e-05
-3.487328367e-08
2.527020565e-05
5.630543149e-08
-1.391021445e-07
2.563181847e-05
-5.630488608e-08
-1.384388413e-07
2.612733149e-05
-1.391033557e-07
2.563182301e-05
5.646515305e-08
2.50284369e-05
-5.646774543e-08
2.552866006e-05
2.502843339e-05
5.025433712e-08
-1.405097752e-07
2.428279273e-05
-5.02688862e-08
-1.375997674e-07
2.489645383e-05
-1.405063747e-07
2.428277039e-05
5.063050027e-08
-2.329358765e-07
2.457717324e-05
-5.063163396e-08
-2.306834919e-07
2.51965005e-05
-2.329375151e-07
2.457717998e-05
5.071244436e-08
2.368429911e-05
-5.072256101e-08
2.431043726e-05
2.368428519e-05
3.400428471e-08
-3.809240011e-07
-3.401996181e-08
-3.741021639e-07
-3.809233635e-07
3.372604184e-08
-4.511685754e-07
-3.372952755e-08
-4.448245555e-07
-4.511707905e-07
3.313951989e-08
-3.315232214e-08
)
;

boundaryField
{
    inlet
    {
        type            calculated;
        value           nonuniform List<scalar> 9(-3.102855299e-05 -3.106290004e-05 -3.102855299e-05 -3.106290004e-05 -3.11013218e-05 -3.106290004e-05 -3.102855299e-05 -3.106290004e-05 -3.102855299e-05);
    }
    outlet
    {
        type            calculated;
        value           nonuniform List<scalar> 9(2.427327455e-05 2.425174111e-05 2.285307938e-05 2.497148368e-05 2.496187187e-05 2.357416386e-05 2.42732366e-05 2.425174698e-05 2.285304959e-05);
    }
    walls
    {
        type            calculated;
        value           uniform 0;
    }
}


// ************************************************************************* //
