/*--------------------------------*- C++ -*----------------------------------*\
  =========                 |
  \\      /  F ield         | OpenFOAM: The Open Source CFD Toolbox
   \\    /   O peration     | Website:  https://openfoam.org
    \\  /    A nd           | Version:  7
     \\/     M anipulation  |
\*---------------------------------------------------------------------------*/
FoamFile
{
    version     2.0;
    format      ascii;
    class       surfaceScalarField;
    location    "0.06";
    object      rhoPhi;
}
// * * * * * * * * * * * * * * * * * * * * * * * * * * * * * * * * * * * * * //

dimensions      [1 0 -1 0 0 0 0];

internalField   nonuniform List<scalar> 
117
(
4.186109324e-08
5.781451803e-08
3.575333913e-05
-4.185887677e-08
5.703771073e-08
3.591672038e-05
5.781508177e-08
3.575333997e-05
4.125157637e-08
-2.637998968e-08
3.593261929e-05
-4.124885209e-08
-2.575107745e-08
3.609753036e-05
-2.638031609e-08
3.593262006e-05
4.212873228e-08
3.578381175e-05
-4.212614901e-08
3.594783032e-05
3.578381202e-05
4.709931101e-08
3.117828589e-08
3.370609499e-05
-4.709468791e-08
3.091451257e-08
3.398983999e-05
3.117871589e-08
3.37060996e-05
4.704908865e-08
-6.373533449e-08
3.399001071e-05
-4.704431906e-08
-6.361555773e-08
3.427351704e-05
-6.373574354e-08
3.399001127e-05
4.746067902e-08
3.370316825e-05
-4.745579783e-08
3.398841898e-05
3.370317057e-05
5.952143955e-08
1.305129908e-08
3.120165875e-05
-5.951957937e-08
1.354544464e-08
3.162389475e-05
1.305090822e-08
3.120165902e-05
5.998266015e-08
-1.033738878e-07
3.157693498e-05
-5.997855217e-08
-1.033564606e-07
3.199869344e-05
-1.033748392e-07
3.15769398e-05
6.002312592e-08
3.11116778e-05
-6.002213777e-08
3.15372766e-05
3.111168239e-05
6.44293874e-08
-4.02155304e-08
2.909045475e-05
-6.443440657e-08
-3.879505969e-08
2.966212998e-05
-4.02135639e-08
2.909044935e-05
6.493210665e-08
-1.604026686e-07
2.950938937e-05
-6.493147776e-08
-1.596490641e-07
3.008273169e-05
-1.604040657e-07
2.950939466e-05
6.511146877e-08
2.881138993e-05
-6.511445821e-08
2.939033188e-05
2.881138586e-05
5.775905646e-08
-1.614909122e-07
2.786773761e-05
-5.777577801e-08
-1.581668095e-07
2.857680148e-05
-1.614870035e-07
2.786771138e-05
5.819757398e-08
-2.677125341e-07
2.820906559e-05
-5.819887717e-08
-2.651585419e-07
2.892451424e-05
-2.677144169e-07
2.820907333e-05
5.828318925e-08
2.717869569e-05
-5.829481605e-08
2.790206986e-05
2.717867931e-05
3.897314576e-08
-4.365718985e-07
-3.899111301e-08
-4.288384522e-07
-4.3657116e-07
3.86593456e-08
-5.170475481e-07
-3.866334116e-08
-5.098803895e-07
-5.170500799e-07
3.797766699e-08
-3.799233781e-08
)
;

boundaryField
{
    inlet
    {
        type            calculated;
        value           nonuniform List<scalar> 9(-3.659598163e-05 -3.663646725e-05 -3.659593834e-05 -3.66364891e-05 -3.668178055e-05 -3.663644573e-05 -3.659598163e-05 -3.663646725e-05 -3.659593834e-05);
    }
    outlet
    {
        type            calculated;
        value           nonuniform List<scalar> 9(2.7817322e-05 2.779644867e-05 2.618667457e-05 2.862327704e-05 2.861591195e-05 2.701865293e-05 2.781727757e-05 2.779645537e-05 2.618663977e-05);
    }
    walls
    {
        type            calculated;
        value           uniform 0;
    }
}


// ************************************************************************* //
