/*--------------------------------*- C++ -*----------------------------------*\
  =========                 |
  \\      /  F ield         | OpenFOAM: The Open Source CFD Toolbox
   \\    /   O peration     | Website:  https://openfoam.org
    \\  /    A nd           | Version:  7
     \\/     M anipulation  |
\*---------------------------------------------------------------------------*/
FoamFile
{
    version     2.0;
    format      ascii;
    class       volScalarField::Internal;
    location    "0.06";
    object      steelCloud:UCoeff;
}
// * * * * * * * * * * * * * * * * * * * * * * * * * * * * * * * * * * * * * //

dimensions      [1 0 0 0 0 0 0];

value           nonuniform List<scalar> 
54
(
3.493162377e-08
3.499860464e-08
3.493162377e-08
3.499860464e-08
3.507335638e-08
3.499860464e-08
3.493162377e-08
3.499860464e-08
3.493162377e-08
3.241379038e-08
3.248315006e-08
3.241379038e-08
3.248315006e-08
3.256320516e-08
3.248315006e-08
3.241379038e-08
3.248315006e-08
3.241379038e-08
2.77123911e-08
2.775993771e-08
2.77123911e-08
2.775993771e-08
2.781332537e-08
2.775993771e-08
2.77123911e-08
2.775993771e-08
2.77123911e-08
2.222101186e-08
2.224516723e-08
2.222101186e-08
2.224516723e-08
2.227142927e-08
2.224516723e-08
2.222101186e-08
2.224516723e-08
2.222101186e-08
1.759131456e-08
1.760160458e-08
1.759131456e-08
1.760160458e-08
1.76124989e-08
1.760160458e-08
1.759131456e-08
1.760160458e-08
1.759131456e-08
1.500177919e-08
1.50065003e-08
1.500177919e-08
1.50065003e-08
1.501139826e-08
1.50065003e-08
1.500177919e-08
1.50065003e-08
1.500177919e-08
)
;


// ************************************************************************* //
