/*--------------------------------*- C++ -*----------------------------------*\
  =========                 |
  \\      /  F ield         | OpenFOAM: The Open Source CFD Toolbox
   \\    /   O peration     | Website:  https://openfoam.org
    \\  /    A nd           | Version:  7
     \\/     M anipulation  |
\*---------------------------------------------------------------------------*/
FoamFile
{
    version     2.0;
    format      ascii;
    class       volScalarField;
    location    "0.06";
    object      T;
}
// * * * * * * * * * * * * * * * * * * * * * * * * * * * * * * * * * * * * * //

dimensions      [0 0 0 1 0 0 0];

internalField   nonuniform List<scalar> 
54
(
300.0188754
300.0226821
300.0188753
300.0226798
300.0269285
300.0226798
300.0188714
300.022678
300.0188714
301.9004733
301.9017791
301.9004728
301.9009514
301.9035287
301.9009512
301.8988817
301.900164
301.8988813
303.5089801
303.5011708
303.5089788
303.5003503
303.4944661
303.5003498
303.5075638
303.4996606
303.5075629
304.7961399
304.7735758
304.7961388
304.7747345
304.7545688
304.7747338
304.7985457
304.7756613
304.7985448
305.8124054
305.7715133
305.8124078
305.7783985
305.7402769
305.7783979
305.8251089
305.783259
305.8251105
306.6785769
306.616401
306.6785875
306.636606
306.5772666
306.6366064
306.7148237
306.6500179
306.7148314
)
;

boundaryField
{
    inlet
    {
        type            fixedValue;
        value           uniform 298;
    }
    outlet
    {
        type            zeroGradient;
    }
    walls
    {
        type            zeroGradient;
    }
}


// ************************************************************************* //
