/*--------------------------------*- C++ -*----------------------------------*\
  =========                 |
  \\      /  F ield         | OpenFOAM: The Open Source CFD Toolbox
   \\    /   O peration     | Website:  https://openfoam.org
    \\  /    A nd           | Version:  7
     \\/     M anipulation  |
\*---------------------------------------------------------------------------*/
FoamFile
{
    version     2.0;
    format      ascii;
    class       volVectorField;
    location    "0.06";
    object      U;
}
// * * * * * * * * * * * * * * * * * * * * * * * * * * * * * * * * * * * * * //

dimensions      [0 1 -1 0 0 0 0];

internalField   nonuniform List<vector> 
54
(
(1.71266047 0.00165881536 -0.007630830473)
(1.719705614 3.412635279e-08 -0.007675428813)
(1.71266049 -0.001658692914 -0.007630817815)
(1.72009884 0.001635418154 0.003479576954)
(1.727308039 4.706972299e-08 0.00350061665)
(1.720098849 -0.001635281609 0.003479582894)
(1.713414764 0.001652805786 -0.01112971682)
(1.720477262 4.377998077e-08 -0.01113419764)
(1.713414772 -0.001652673573 -0.01112972496)
(1.802685405 0.002975064307 -0.01507884853)
(1.814573345 4.211932761e-08 -0.01513460081)
(1.802685526 -0.002974672679 -0.01507884898)
(1.81513797 0.002953514265 0.008238473473)
(1.827037701 3.66630028e-08 0.008299267695)
(1.815138034 -0.002953122405 0.008238461221)
(1.803697644 0.002946386803 -0.02139019264)
(1.815637633 4.795079063e-08 -0.02143325399)
(1.803697698 -0.002945987947 -0.02139018896)
(1.779436942 0.004177079791 -0.02278301184)
(1.797982575 -2.166159843e-07 -0.02282880889)
(1.77943721 -0.004176444263 -0.02278293572)
(1.797212878 0.004166900481 0.01331995305)
(1.815731663 -1.341454533e-07 0.01345357489)
(1.797212986 -0.004166177364 0.01331990034)
(1.777829692 0.004108702156 -0.03172111299)
(1.796490614 -2.396507744e-07 -0.03181907398)
(1.77782992 -0.004108091191 -0.03172121858)
(1.657865866 0.005056967931 -0.03188799702)
(1.684419997 -6.793790989e-07 -0.03191399753)
(1.657865835 -0.00505604135 -0.03188786927)
(1.679831701 0.005040148258 0.01697304898)
(1.706407136 -5.086951534e-07 0.01722883506)
(1.679831967 -0.005039048628 0.01697304689)
(1.649281047 0.004927102088 -0.04273520707)
(1.676086674 -6.285258821e-07 -0.04286427122)
(1.649281204 -0.004926126324 -0.04273533768)
(1.550816427 0.005422261876 -0.04373907453)
(1.585452647 -1.461275399e-06 -0.04370691643)
(1.550815695 -0.005421148746 -0.04373864115)
(1.572909255 0.00536613955 0.01639022288)
(1.607729072 -8.928265947e-07 0.01685930659)
(1.572909641 -0.005364458403 0.0163903499)
(1.527388098 0.005171213517 -0.05523990005)
(1.562557473 -1.258885636e-06 -0.05535603764)
(1.527387674 -0.005169892913 -0.05524029954)
(1.505502082 0.005082301745 -0.0600849189)
(1.548475541 -1.925268001e-06 -0.05994731327)
(1.505499844 -0.005080541376 -0.06008464647)
(1.511439072 0.004965253718 0.006170965929)
(1.555085798 -1.378132979e-06 0.007032872015)
(1.511439455 -0.004962939446 0.00617099589)
(1.43360818 0.004698119587 -0.07168110266)
(1.477892236 -1.801097422e-06 -0.0716847658)
(1.433606468 -0.004696202828 -0.07168163477)
)
;

boundaryField
{
    inlet
    {
        type            interstitialInletVelocity;
        inletVelocity   uniform (1.23 0 0);
        value           nonuniform List<vector> 9((1.939284562 0 0) (1.941431252 0 0) (1.939284562 0 0) (1.941431252 0 0) (1.943832612 0 0) (1.941431252 0 0) (1.939284562 0 0) (1.941431252 0 0) (1.939284562 0 0));
    }
    outlet
    {
        type            pressureInletOutletVelocity;
        phi             alphaRhoPhi;
        value           nonuniform List<vector> 9((1.505502082 0.005082301745 -0.0600849189) (1.511439072 0.004965253718 0.006170965929) (1.43360818 0.004698119587 -0.07168110266) (1.548475541 -1.925268001e-06 -0.05994731327) (1.555085798 -1.378132979e-06 0.007032872015) (1.477892236 -1.801097422e-06 -0.0716847658) (1.505499844 -0.005080541376 -0.06008464647) (1.511439455 -0.004962939446 0.00617099589) (1.433606468 -0.004696202828 -0.07168163477));
    }
    walls
    {
        type            noSlip;
    }
}


// ************************************************************************* //
