/*--------------------------------*- C++ -*----------------------------------*\
  =========                 |
  \\      /  F ield         | OpenFOAM: The Open Source CFD Toolbox
   \\    /   O peration     | Website:  https://openfoam.org
    \\  /    A nd           | Version:  7
     \\/     M anipulation  |
\*---------------------------------------------------------------------------*/
FoamFile
{
    version     2.0;
    format      ascii;
    class       volVectorField;
    location    "0.06";
    object      Uavg;
}
// * * * * * * * * * * * * * * * * * * * * * * * * * * * * * * * * * * * * * //

dimensions      [0 1 -1 0 0 0 0];

internalField   nonuniform List<vector> 
54
(
(1.247358305 5.104762481e-05 -0.01020676612)
(1.247362454 1.006397042e-07 -0.010206771)
(1.247358304 -5.08461218e-05 -0.01020676617)
(1.247325175 5.10140262e-05 -0.01025314416)
(1.247329329 1.008190435e-07 -0.01025314619)
(1.247325175 -5.081216419e-05 -0.01025314429)
(1.24728374 5.09839175e-05 -0.01031638163)
(1.247287894 1.009887563e-07 -0.01031638321)
(1.24728374 -5.078171617e-05 -0.01031638183)
(1.219653231 5.359033627e-05 -0.01123877826)
(1.219657704 9.366654111e-08 -0.01123877806)
(1.219653228 -5.340264596e-05 -0.01123877822)
(1.219591148 5.354006364e-05 -0.01128760807)
(1.219595625 9.397714844e-08 -0.01128760578)
(1.219591145 -5.335175243e-05 -0.0112876082)
(1.219520154 5.349148814e-05 -0.0113546782)
(1.219524635 9.425577516e-08 -0.01135467659)
(1.219520152 -5.330261982e-05 -0.01135467849)
(1.182723914 5.981315062e-05 -0.01319650739)
(1.182729534 8.149191291e-08 -0.01319649313)
(1.182723907 -5.964944192e-05 -0.01319650715)
(1.182599818 5.972224577e-05 -0.01325101151)
(1.182605446 8.209460659e-08 -0.01325099653)
(1.18259981 -5.955733535e-05 -0.01325101164)
(1.182464658 5.962942755e-05 -0.01332748569)
(1.182470296 8.260282609e-08 -0.0133274738)
(1.182464651 -5.946350134e-05 -0.01332748619)
(1.159959477 7.147817281e-05 -0.015756896)
(1.159968548 6.799892015e-08 -0.01575685424)
(1.159959462 -7.134065456e-05 -0.01575689545)
(1.159742353 7.131418159e-05 -0.01581939959)
(1.159751446 6.904712654e-08 -0.01581935746)
(1.159742338 -7.117458052e-05 -0.01581939974)
(1.159507565 7.114197474e-05 -0.0159154712)
(1.15951668 6.987677081e-08 -0.01591543846)
(1.15950755 -7.100071607e-05 -0.01591547208)
(1.157888768 8.51576197e-05 -0.01824411971)
(1.157902439 5.753295605e-08 -0.01824404258)
(1.157888744 -8.504009391e-05 -0.01824411894)
(1.157568079 8.490689742e-05 -0.01831503074)
(1.157581793 5.901567112e-08 -0.01831495211)
(1.157568057 -8.478643009e-05 -0.01831503103)
(1.157220875 8.464159143e-05 -0.0184349573)
(1.157234632 6.013929688e-08 -0.01843489575)
(1.157220853 -8.451887787e-05 -0.0184349587)
(1.163502954 9.393352236e-05 -0.0197950523)
(1.163519682 5.223441308e-08 -0.01979494733)
(1.163502924 -9.382598388e-05 -0.0197950515)
(1.163109064 9.362292114e-05 -0.01987161443)
(1.163125852 5.3961428e-08 -0.0198715063)
(1.163109036 -9.351195649e-05 -0.01987161489)
(1.16268278 9.329427278e-05 -0.02000686482)
(1.162699629 5.524946666e-08 -0.02000677872)
(1.162682753 -9.318073175e-05 -0.02000686661)
)
;

boundaryField
{
    inlet
    {
        type            interstitialInletVelocity;
        inletVelocity   uniform (1.23 0 0);
        value           uniform (1.23 0 0);
    }
    outlet
    {
        type            pressureInletOutletVelocity;
        phi             alphaRhoPhi;
        value           nonuniform List<vector> 9((1.505570457 0.005070440632 -0.06000844648) (1.511458785 0.004955751068 0.006078114298) (1.433643523 0.00469006827 -0.07158469346) (1.548497691 -2.972643959e-06 -0.05987691413) (1.555057605 -2.083597915e-06 0.006935992509) (1.477873827 -2.763438507e-06 -0.07159694583) (1.505565954 -0.00506793598 -0.06000802937) (1.511459287 -0.004952345174 0.006078196498) (1.43364011 -0.004687322067 -0.07158554914));
    }
    walls
    {
        type            noSlip;
    }
}


// ************************************************************************* //
