/*--------------------------------*- C++ -*----------------------------------*\
  =========                 |
  \\      /  F ield         | OpenFOAM: The Open Source CFD Toolbox
   \\    /   O peration     | Website:  https://openfoam.org
    \\  /    A nd           | Version:  7
     \\/     M anipulation  |
\*---------------------------------------------------------------------------*/
FoamFile
{
    version     2.0;
    format      ascii;
    class       surfaceScalarField;
    location    "0.025";
    object      alphaRhoPhi;
}
// * * * * * * * * * * * * * * * * * * * * * * * * * * * * * * * * * * * * * //

dimensions      [1 0 -1 0 0 0 0];

internalField   nonuniform List<scalar> 
117
(
2.594934904e-08
3.462594134e-08
2.315082472e-05
-2.559111867e-08
3.386615825e-08
2.322911223e-05
3.451405459e-08
2.315129584e-05
2.526377471e-08
-1.713619659e-08
2.323791606e-05
-2.511843917e-08
-1.668728323e-08
2.331238794e-05
-1.709791318e-08
2.323790809e-05
2.595803093e-08
2.316827345e-05
-2.569101368e-08
2.324636108e-05
2.316857838e-05
2.952986411e-08
1.713202328e-08
2.30854625e-05
-3.072202374e-08
1.754676633e-08
2.3253285e-05
1.743565542e-08
2.308442654e-05
3.012722065e-08
-4.362981677e-08
2.324999155e-05
-3.040354782e-08
-4.346222171e-08
2.34155523e-05
-4.368588808e-08
2.325006382e-05
3.010699632e-08
2.307578563e-05
-3.100296094e-08
2.324542968e-05
2.307513795e-05
4.146223565e-08
7.618422306e-09
2.298382147e-05
-4.084339776e-08
7.071014436e-09
2.327632004e-05
7.309161487e-09
2.298371653e-05
4.122945359e-08
-7.380494572e-08
2.323792499e-05
-4.1715014e-08
-7.415571157e-08
2.352782038e-05
-7.381170176e-08
2.32372092e-05
4.141974678e-08
2.290789351e-05
-4.134009027e-08
2.320172253e-05
2.290732422e-05
4.601961585e-08
-2.951201381e-08
2.287344389e-05
-4.702583854e-08
-2.801424153e-08
2.330389787e-05
-2.873501716e-08
2.287154987e-05
4.747941457e-08
-1.183678089e-07
2.318573851e-05
-4.683040518e-08
-1.181110177e-07
2.361907618e-05
-1.182402656e-07
2.318632246e-05
4.720856468e-08
2.264829634e-05
-4.718514058e-08
2.3084371e-05
2.264788217e-05
4.317110921e-08
-1.174351542e-07
2.281590854e-05
-4.191107634e-08
-1.173513787e-07
2.337463764e-05
-1.183653389e-07
2.281621219e-05
4.283998205e-08
-1.97582693e-07
2.309139488e-05
-4.305897044e-08
-1.981170935e-07
2.365421266e-05
-1.979714116e-07
2.309121531e-05
4.306826631e-08
2.227592182e-05
-4.277201111e-08
2.284044433e-05
2.227541811e-05
2.714478086e-08
-3.338227435e-07
-2.764262648e-08
-3.303309699e-07
-3.331454493e-07
2.813917543e-08
-3.906812118e-07
-2.743677491e-08
-3.88241308e-07
-3.905602358e-07
2.779701827e-08
-2.751605828e-08
)
;

boundaryField
{
    inlet
    {
        type            calculated;
        value           nonuniform List<scalar> 9(-2.32111832e-05 -2.321116793e-05 -2.321115584e-05 -2.321118171e-05 -2.321116647e-05 -2.321115434e-05 -2.321118321e-05 -2.321116794e-05 -2.321115585e-05);
    }
    outlet
    {
        type            calculated;
        value           nonuniform List<scalar> 9(2.296623088e-05 2.296358654e-05 2.170183769e-05 2.360282415e-05 2.361064181e-05 2.235127027e-05 2.29653594e-05 2.296466523e-05 2.170173906e-05);
    }
    walls
    {
        type            calculated;
        value           uniform 0;
    }
}


// ************************************************************************* //
