/*--------------------------------*- C++ -*----------------------------------*\
  =========                 |
  \\      /  F ield         | OpenFOAM: The Open Source CFD Toolbox
   \\    /   O peration     | Website:  https://openfoam.org
    \\  /    A nd           | Version:  7
     \\/     M anipulation  |
\*---------------------------------------------------------------------------*/
FoamFile
{
    version     2.0;
    format      ascii;
    class       volScalarField;
    location    "0.025";
    object      muavg;
}
// * * * * * * * * * * * * * * * * * * * * * * * * * * * * * * * * * * * * * //

dimensions      [1 -1 -1 0 0 0 0];

internalField   nonuniform List<scalar> 
54
(
1.872467125e-05
1.87246709e-05
1.872467124e-05
1.872467578e-05
1.872467543e-05
1.872467576e-05
1.872468099e-05
1.872468064e-05
1.872468098e-05
1.875587263e-05
1.875587201e-05
1.875587262e-05
1.875587893e-05
1.875587831e-05
1.875587892e-05
1.875588646e-05
1.875588583e-05
1.875588644e-05
1.881013484e-05
1.881013368e-05
1.881013481e-05
1.881014465e-05
1.881014349e-05
1.881014463e-05
1.881015674e-05
1.881015558e-05
1.881015672e-05
1.887333147e-05
1.887332959e-05
1.887333144e-05
1.887334615e-05
1.887334428e-05
1.887334612e-05
1.887336452e-05
1.887336264e-05
1.887336449e-05
1.892872414e-05
1.892872154e-05
1.892872411e-05
1.892874394e-05
1.892874133e-05
1.892874391e-05
1.892876884e-05
1.892876622e-05
1.89287688e-05
1.896107112e-05
1.896106803e-05
1.896107109e-05
1.896109435e-05
1.896109126e-05
1.896109432e-05
1.896112363e-05
1.896112053e-05
1.896112359e-05
)
;

boundaryField
{
    inlet
    {
        type            calculated;
        value           uniform 1.835366622e-05;
    }
    outlet
    {
        type            calculated;
        value           nonuniform List<scalar> 9(1.929545824e-05 1.928969613e-05 1.929936129e-05 1.928759225e-05 1.928192878e-05 1.929140245e-05 1.929545672e-05 1.928969451e-05 1.929936029e-05);
    }
    walls
    {
        type            calculated;
        value           nonuniform List<scalar> 
72
(
1.844203905e-05
1.857022127e-05
1.873196067e-05
1.891552776e-05
1.910763084e-05
1.929545824e-05
1.844212005e-05
1.856983446e-05
1.873040363e-05
1.891211902e-05
1.910198451e-05
1.928759225e-05
1.844203906e-05
1.857022094e-05
1.87319615e-05
1.891552527e-05
1.910763061e-05
1.929545672e-05
1.844203989e-05
1.857025103e-05
1.873224068e-05
1.891638492e-05
1.910951932e-05
1.929936129e-05
1.844212088e-05
1.856986398e-05
1.873067493e-05
1.891295575e-05
1.910382672e-05
1.929140245e-05
1.844203989e-05
1.857025193e-05
1.873223832e-05
1.891638299e-05
1.910951842e-05
1.929936029e-05
1.844203906e-05
1.844212047e-05
1.844203989e-05
1.857022094e-05
1.856985226e-05
1.857025193e-05
1.87319615e-05
1.873054522e-05
1.873223832e-05
1.891552527e-05
1.891255119e-05
1.891638299e-05
1.910763061e-05
1.910294875e-05
1.910951842e-05
1.929545672e-05
1.928969451e-05
1.929936029e-05
1.844203905e-05
1.844212047e-05
1.844203989e-05
1.857022127e-05
1.856985154e-05
1.857025103e-05
1.873196067e-05
1.873054716e-05
1.873224068e-05
1.891552776e-05
1.891255437e-05
1.891638492e-05
1.910763084e-05
1.910295045e-05
1.910951932e-05
1.929545824e-05
1.928969613e-05
1.929936129e-05
)
;
    }
}


// ************************************************************************* //
