/*--------------------------------*- C++ -*----------------------------------*\
  =========                 |
  \\      /  F ield         | OpenFOAM: The Open Source CFD Toolbox
   \\    /   O peration     | Website:  https://openfoam.org
    \\  /    A nd           | Version:  7
     \\/     M anipulation  |
\*---------------------------------------------------------------------------*/
FoamFile
{
    version     2.0;
    format      ascii;
    class       surfaceScalarField;
    location    "0.025";
    object      phi;
}
// * * * * * * * * * * * * * * * * * * * * * * * * * * * * * * * * * * * * * //

dimensions      [0 3 -1 0 0 0 0];

internalField   nonuniform List<scalar> 
117
(
3.490259018e-08
4.657285984e-08
3.05809777e-05
-3.442076044e-08
4.560473695e-08
3.071825985e-05
4.642236898e-08
3.058159691e-05
3.402063294e-08
-2.304867729e-08
3.072990799e-05
-3.382492158e-08
-2.247138873e-08
3.086714585e-05
-2.299718497e-08
3.072989832e-05
3.491430833e-08
3.06040349e-05
-3.455516233e-08
3.074108153e-05
3.060443595e-05
3.836747063e-08
2.225924002e-08
2.9002249e-05
-3.991641208e-08
2.28249907e-08
2.92381155e-05
2.265374056e-08
2.900095154e-05
3.918975428e-08
-5.668719008e-08
2.923403364e-05
-3.954920423e-08
-5.653603546e-08
2.947131243e-05
-5.67600406e-08
2.923412533e-05
3.911730498e-08
2.899021388e-05
-4.028140823e-08
2.922835173e-05
2.898940179e-05
5.047520659e-08
9.274518255e-09
2.699032903e-05
-4.972185901e-08
8.613984666e-09
2.734440711e-05
8.898032316e-09
2.699021204e-05
5.022626428e-08
-8.984910429e-08
2.729964713e-05
-5.081778033e-08
-9.033764315e-08
2.765266562e-05
-8.985733901e-08
2.729880865e-05
5.042391678e-08
2.690184544e-05
-5.032694953e-08
2.725743227e-05
2.690118375e-05
5.223074419e-08
-3.349551456e-08
2.527741833e-05
-5.337277316e-08
-3.180102431e-08
2.575239962e-05
-3.26136423e-08
2.527533627e-05
5.389794148e-08
-1.343477673e-07
2.562289996e-05
-5.316120021e-08
-1.340792036e-07
2.610175147e-05
-1.342030364e-07
2.562354406e-05
5.358235888e-08
2.503065444e-05
-5.355577982e-08
2.551180786e-05
2.503020067e-05
4.64962179e-08
-1.264841816e-07
2.429120232e-05
-4.513915549e-08
-1.263693352e-07
2.487777464e-05
-1.274860816e-07
2.429153582e-05
4.61335051e-08
-2.128205389e-07
2.457905333e-05
-4.636932282e-08
-2.133540086e-07
2.517010405e-05
-2.132392099e-07
2.457885719e-05
4.63909984e-08
2.372126166e-05
-4.607188771e-08
2.431411831e-05
2.372072822e-05
2.856709689e-08
-3.513423245e-07
-2.909102748e-08
-3.475085663e-07
-3.506294516e-07
2.960481518e-08
-4.112458689e-07
-2.886582799e-08
-4.084887504e-07
-4.111185433e-07
2.926204156e-08
-2.896627694e-08
)
;

boundaryField
{
    inlet
    {
        type            calculated;
        value           nonuniform List<scalar> 9(-3.102855299e-05 -3.106290004e-05 -3.102855299e-05 -3.106290004e-05 -3.11013218e-05 -3.106290004e-05 -3.102855299e-05 -3.106290004e-05 -3.102855299e-05);
    }
    outlet
    {
        type            calculated;
        value           nonuniform List<scalar> 9(2.417523978e-05 2.416513969e-05 2.285105679e-05 2.483385544e-05 2.483485476e-05 2.352374294e-05 2.4174321e-05 2.41662717e-05 2.285095795e-05);
    }
    walls
    {
        type            calculated;
        value           uniform 0;
    }
}


// ************************************************************************* //
