/*--------------------------------*- C++ -*----------------------------------*\
  =========                 |
  \\      /  F ield         | OpenFOAM: The Open Source CFD Toolbox
   \\    /   O peration     | Website:  https://openfoam.org
    \\  /    A nd           | Version:  7
     \\/     M anipulation  |
\*---------------------------------------------------------------------------*/
FoamFile
{
    version     2.0;
    format      ascii;
    class       surfaceScalarField;
    location    "0.025";
    object      rhoPhi;
}
// * * * * * * * * * * * * * * * * * * * * * * * * * * * * * * * * * * * * * //

dimensions      [1 0 -1 0 0 0 0];

internalField   nonuniform List<scalar> 
117
(
4.093577982e-08
5.462333213e-08
3.575771549e-05
-4.037066202e-08
5.348736204e-08
3.591823286e-05
5.444682784e-08
3.575844315e-05
3.990097296e-08
-2.703280032e-08
3.593184586e-05
-3.967143364e-08
-2.635547714e-08
3.609222763e-05
-2.697240722e-08
3.593183354e-05
4.094947574e-08
3.578466601e-05
-4.052824901e-08
3.594490406e-05
3.578513699e-05
4.472500958e-08
2.594762721e-08
3.369011045e-05
-4.653061731e-08
2.660730606e-08
3.396536137e-05
2.640749896e-08
3.368859861e-05
4.568386935e-08
-6.608035736e-08
3.396055074e-05
-4.610288226e-08
-6.590460108e-08
3.423731655e-05
-6.616528121e-08
3.39606563e-05
4.5599116e-08
3.367598837e-05
-4.695611602e-08
3.395388736e-05
3.367504316e-05
5.843098328e-08
1.073632185e-08
3.111849039e-05
-5.75588811e-08
9.972308981e-09
3.153053772e-05
1.030049359e-08
3.111834832e-05
5.814623262e-08
-1.040102031e-07
3.147852706e-05
-5.883102241e-08
-1.045824012e-07
3.188923733e-05
-1.040197241e-07
3.147755745e-05
5.837110551e-08
3.101568923e-05
-5.825884895e-08
3.142948653e-05
3.101491846e-05
5.998289552e-08
-3.846655406e-08
2.889608107e-05
-6.129442646e-08
-3.652689377e-08
2.944658285e-05
-3.745380096e-08
2.889368834e-05
6.190692439e-08
-1.542829897e-07
2.929727782e-05
-6.106070135e-08
-1.540012637e-07
2.985217663e-05
-1.541167472e-07
2.929801569e-05
6.153259541e-08
2.861165158e-05
-6.150206397e-08
2.91691908e-05
2.861112836e-05
5.292137924e-08
-1.439580879e-07
2.750993258e-05
-5.137676576e-08
-1.438749514e-07
2.818628238e-05
-1.450983563e-07
2.751029869e-05
5.252260695e-08
-2.422070875e-07
2.78447344e-05
-5.279109075e-08
-2.428952052e-07
2.852625153e-05
-2.426835989e-07
2.784451787e-05
5.279530909e-08
2.685885186e-05
-5.243214414e-08
2.754212595e-05
2.685824451e-05
3.22039671e-08
-3.96039913e-07
-3.279460014e-08
-3.919207647e-07
-3.952363862e-07
3.338568937e-08
-4.634955411e-07
-3.255232715e-08
-4.606284126e-07
-4.633520179e-07
3.297776713e-08
-3.264444242e-08
)
;

boundaryField
{
    inlet
    {
        type            calculated;
        value           nonuniform List<scalar> 9(-3.659600751e-05 -3.663649335e-05 -3.659596438e-05 -3.663651511e-05 -3.668180679e-05 -3.66364719e-05 -3.659600753e-05 -3.663649337e-05 -3.659596439e-05);
    }
    outlet
    {
        type            calculated;
        value           nonuniform List<scalar> 9(2.7245829e-05 2.724428959e-05 2.57458249e-05 2.800268918e-05 2.801366858e-05 2.651782982e-05 2.724479513e-05 2.724556936e-05 2.574570789e-05);
    }
    walls
    {
        type            calculated;
        value           uniform 0;
    }
}


// ************************************************************************* //
