/*--------------------------------*- C++ -*----------------------------------*\
  =========                 |
  \\      /  F ield         | OpenFOAM: The Open Source CFD Toolbox
   \\    /   O peration     | Website:  https://openfoam.org
    \\  /    A nd           | Version:  7
     \\/     M anipulation  |
\*---------------------------------------------------------------------------*/
FoamFile
{
    version     2.0;
    format      ascii;
    class       volVectorField::Internal;
    location    "0.025";
    object      steelCloud:UTrans;
}
// * * * * * * * * * * * * * * * * * * * * * * * * * * * * * * * * * * * * * //

dimensions      [1 1 -1 0 0 0 0];

value           nonuniform List<vector> 
54
(
(-6.369647867e-08 2.183143305e-12 -2.686227443e-10)
(-6.381861572e-08 2.187329449e-12 -2.691378244e-10)
(-6.369647867e-08 2.183143305e-12 -2.686227443e-10)
(-6.381861572e-08 2.187329449e-12 -2.691378244e-10)
(-6.395492265e-08 2.192001255e-12 -2.697126621e-10)
(-6.381861572e-08 2.187329449e-12 -2.691378244e-10)
(-6.369647867e-08 2.183143305e-12 -2.686227443e-10)
(-6.381861572e-08 2.187329449e-12 -2.691378244e-10)
(-6.369647867e-08 2.183143305e-12 -2.686227443e-10)
(-5.910530587e-08 2.025784713e-12 -2.492607094e-10)
(-5.923178058e-08 2.030119528e-12 -2.497940825e-10)
(-5.910530587e-08 2.025784713e-12 -2.492607094e-10)
(-5.923178058e-08 2.030119528e-12 -2.497940825e-10)
(-5.9377758e-08 2.035122781e-12 -2.504097029e-10)
(-5.923178058e-08 2.030119528e-12 -2.497940825e-10)
(-5.910530587e-08 2.025784713e-12 -2.492607094e-10)
(-5.923178058e-08 2.030119528e-12 -2.497940825e-10)
(-5.910530587e-08 2.025784713e-12 -2.492607094e-10)
(-5.053248426e-08 1.731958453e-12 -2.131071431e-10)
(-5.061918368e-08 1.734930003e-12 -2.134727746e-10)
(-5.053248426e-08 1.731958453e-12 -2.131071431e-10)
(-5.061918368e-08 1.734930003e-12 -2.134727746e-10)
(-5.071653403e-08 1.738266605e-12 -2.138833235e-10)
(-5.061918368e-08 1.734930003e-12 -2.134727746e-10)
(-5.053248426e-08 1.731958453e-12 -2.131071431e-10)
(-5.061918368e-08 1.734930003e-12 -2.134727746e-10)
(-5.053248427e-08 1.731958454e-12 -2.131071431e-10)
(-4.051916444e-08 1.388760327e-12 -1.708786635e-10)
(-4.056321084e-08 1.39026998e-12 -1.710644174e-10)
(-4.051916444e-08 1.388760327e-12 -1.708786635e-10)
(-4.056321084e-08 1.39026998e-12 -1.710644174e-10)
(-4.061109866e-08 1.391911295e-12 -1.712663714e-10)
(-4.056321084e-08 1.39026998e-12 -1.710644174e-10)
(-4.051916444e-08 1.388760327e-12 -1.708786635e-10)
(-4.056321084e-08 1.39026998e-12 -1.710644174e-10)
(-4.051916444e-08 1.388760327e-12 -1.708786635e-10)
(-3.207708865e-08 1.09941527e-12 -1.352764825e-10)
(-3.209585211e-08 1.100058372e-12 -1.353556123e-10)
(-3.207708865e-08 1.09941527e-12 -1.352764825e-10)
(-3.209585211e-08 1.100058372e-12 -1.353556123e-10)
(-3.211571749e-08 1.100739242e-12 -1.354393892e-10)
(-3.209585211e-08 1.100058372e-12 -1.353556123e-10)
(-3.207708865e-08 1.09941527e-12 -1.352764825e-10)
(-3.209585211e-08 1.100058372e-12 -1.353556123e-10)
(-3.207708865e-08 1.099415271e-12 -1.352764825e-10)
(-2.735517004e-08 9.375754761e-13 -1.153630624e-10)
(-2.73637788e-08 9.378705342e-13 -1.153993676e-10)
(-2.735517004e-08 9.375754761e-13 -1.153630624e-10)
(-2.73637788e-08 9.378705342e-13 -1.153993676e-10)
(-2.737271005e-08 9.381766452e-13 -1.154370327e-10)
(-2.73637788e-08 9.378705342e-13 -1.153993676e-10)
(-2.735517004e-08 9.375754761e-13 -1.153630624e-10)
(-2.73637788e-08 9.378705342e-13 -1.153993676e-10)
(-2.735517004e-08 9.375754761e-13 -1.153630624e-10)
)
;


// ************************************************************************* //
