/*--------------------------------*- C++ -*----------------------------------*\
  =========                 |
  \\      /  F ield         | OpenFOAM: The Open Source CFD Toolbox
   \\    /   O peration     | Website:  https://openfoam.org
    \\  /    A nd           | Version:  7
     \\/     M anipulation  |
\*---------------------------------------------------------------------------*/
FoamFile
{
    version     2.0;
    format      ascii;
    class       volScalarField::Internal;
    location    "0.025";
    object      steelCloud:hsTrans;
}
// * * * * * * * * * * * * * * * * * * * * * * * * * * * * * * * * * * * * * //

dimensions      [1 2 -2 0 0 0 0];

value           nonuniform List<scalar> 
54
(
0.0001964365063
0.0001968131704
0.0001964365063
0.0001968131704
0.0001972335336
0.0001968131704
0.0001964365063
0.0001968131704
0.0001964365063
0.0001822775769
0.0001826676181
0.0001822775769
0.0001826676181
0.0001831178046
0.0001826676181
0.0001822775769
0.0001826676181
0.0001822775769
0.0001558394572
0.0001561068336
0.0001558394572
0.0001561068336
0.0001564070568
0.0001561068336
0.0001558394572
0.0001561068336
0.0001558394572
0.0001249589187
0.0001250947554
0.0001249589187
0.0001250947554
0.0001252424389
0.0001250947554
0.0001249589187
0.0001250947554
0.0001249589187
9.892401211e-05
9.898187759e-05
9.892401211e-05
9.898187759e-05
9.904314137e-05
9.89818776e-05
9.892401211e-05
9.89818776e-05
9.892401211e-05
8.436186966e-05
8.438841862e-05
8.436186966e-05
8.438841862e-05
8.44159621e-05
8.438841862e-05
8.436186966e-05
8.438841862e-05
8.436186966e-05
)
;


// ************************************************************************* //
