/*--------------------------------*- C++ -*----------------------------------*\
  =========                 |
  \\      /  F ield         | OpenFOAM: The Open Source CFD Toolbox
   \\    /   O peration     | Website:  https://openfoam.org
    \\  /    A nd           | Version:  7
     \\/     M anipulation  |
\*---------------------------------------------------------------------------*/
FoamFile
{
    version     2.0;
    format      ascii;
    class       volScalarField::Internal;
    location    "0.025";
    object      steelCloud:UCoeff;
}
// * * * * * * * * * * * * * * * * * * * * * * * * * * * * * * * * * * * * * //

dimensions      [1 0 0 0 0 0 0];

value           nonuniform List<scalar> 
54
(
3.515450748e-08
3.522191573e-08
3.515450748e-08
3.522191573e-08
3.529714442e-08
3.522191573e-08
3.515450748e-08
3.522191573e-08
3.515450748e-08
3.262060887e-08
3.269041111e-08
3.262060887e-08
3.269041111e-08
3.277097701e-08
3.269041111e-08
3.262060887e-08
3.269041111e-08
3.262060887e-08
2.788921198e-08
2.793706197e-08
2.788921198e-08
2.793706197e-08
2.799079027e-08
2.793706197e-08
2.788921198e-08
2.793706197e-08
2.788921198e-08
2.236279461e-08
2.23871041e-08
2.23627946e-08
2.23871041e-08
2.241353371e-08
2.23871041e-08
2.23627946e-08
2.23871041e-08
2.236279461e-08
1.770355719e-08
1.771391287e-08
1.770355719e-08
1.771391287e-08
1.77248767e-08
1.771391287e-08
1.770355719e-08
1.771391287e-08
1.770355719e-08
1.509749911e-08
1.510225034e-08
1.509749911e-08
1.510225034e-08
1.510717955e-08
1.510225034e-08
1.509749911e-08
1.510225034e-08
1.509749911e-08
)
;


// ************************************************************************* //
