/*--------------------------------*- C++ -*----------------------------------*\
  =========                 |
  \\      /  F ield         | OpenFOAM: The Open Source CFD Toolbox
   \\    /   O peration     | Website:  https://openfoam.org
    \\  /    A nd           | Version:  7
     \\/     M anipulation  |
\*---------------------------------------------------------------------------*/
FoamFile
{
    version     2.0;
    format      ascii;
    class       volScalarField;
    location    "0.025";
    object      Tavg;
}
// * * * * * * * * * * * * * * * * * * * * * * * * * * * * * * * * * * * * * //

dimensions      [0 0 0 1 0 0 0];

internalField   nonuniform List<scalar> 
54
(
305.0211957
305.021189
305.0211955
305.0212824
305.0212757
305.0212822
305.0213821
305.0213754
305.0213818
305.6144688
305.6144569
305.6144686
305.6145895
305.6145776
305.6145892
305.6147336
305.6147216
305.6147333
306.646606
306.6465839
306.6466056
306.6467942
306.6467721
306.6467938
306.6470258
306.6470036
306.6470254
307.8492878
307.8492519
307.8492873
307.8495696
307.8495337
307.8495691
307.8499218
307.8498859
307.8499213
308.903988
308.9039381
308.9039874
308.904368
308.9043181
308.9043674
308.9048458
308.9047958
308.9048452
309.5201234
309.5200642
309.5201228
309.5205696
309.5205103
309.520569
309.5211318
309.5210723
309.5211311
)
;

boundaryField
{
    inlet
    {
        type            fixedValue;
        value           uniform 298;
    }
    outlet
    {
        type            zeroGradient;
    }
    walls
    {
        type            zeroGradient;
    }
}


// ************************************************************************* //
