/*--------------------------------*- C++ -*----------------------------------*\
  =========                 |
  \\      /  F ield         | OpenFOAM: The Open Source CFD Toolbox
   \\    /   O peration     | Website:  https://openfoam.org
    \\  /    A nd           | Version:  7
     \\/     M anipulation  |
\*---------------------------------------------------------------------------*/
FoamFile
{
    version     2.0;
    format      ascii;
    class       volScalarField;
    location    "0.02";
    object      cpavg;
}
// * * * * * * * * * * * * * * * * * * * * * * * * * * * * * * * * * * * * * //

dimensions      [0 2 -2 -1 0 0 0];

internalField   nonuniform List<scalar> 
27
(
1012.21326
1012.213258
1012.21326
1012.213272
1012.21327
1012.213272
1012.213288
1012.213286
1012.213288
1012.298071
1012.298069
1012.298071
1012.298087
1012.298084
1012.298087
1012.298107
1012.298105
1012.298107
1012.347192
1012.34719
1012.347192
1012.34721
1012.347208
1012.34721
1012.347234
1012.347231
1012.347234
)
;

boundaryField
{
    inlet
    {
        type            calculated;
        value           nonuniform 0();
    }
    outlet
    {
        type            calculated;
        value           nonuniform List<scalar> 9(1012.823072 1012.817976 1012.825918 1012.816415 1012.811367 1012.819221 1012.82307 1012.817976 1012.825919);
    }
    walls
    {
        type            calculated;
        value           nonuniform List<scalar> 
36
(
1012.31104
1012.579849
1012.823072
1012.307231
1012.574481
1012.816415
1012.31104
1012.579847
1012.82307
1012.311926
1012.581299
1012.825918
1012.3081
1012.575904
1012.819221
1012.311927
1012.581299
1012.825919
1012.31104
1012.307681
1012.311927
1012.579847
1012.575233
1012.581299
1012.82307
1012.817976
1012.825919
1012.31104
1012.307681
1012.311926
1012.579849
1012.575234
1012.581299
1012.823072
1012.817976
1012.825918
)
;
    }
    procBoundary1to0
    {
        type            processor;
        value           nonuniform List<scalar> 9(1012.115414 1012.115412 1012.115414 1012.115422 1012.115421 1012.115422 1012.115434 1012.115433 1012.115434);
    }
}


// ************************************************************************* //
