/*--------------------------------*- C++ -*----------------------------------*\
  =========                 |
  \\      /  F ield         | OpenFOAM: The Open Source CFD Toolbox
   \\    /   O peration     | Website:  https://openfoam.org
    \\  /    A nd           | Version:  7
     \\/     M anipulation  |
\*---------------------------------------------------------------------------*/
FoamFile
{
    version     2.0;
    format      ascii;
    class       volScalarField;
    location    "0.02";
    object      muavg;
}
// * * * * * * * * * * * * * * * * * * * * * * * * * * * * * * * * * * * * * //

dimensions      [1 -1 -1 0 0 0 0];

internalField   nonuniform List<scalar> 
27
(
1.909556068e-05
1.909555923e-05
1.909556067e-05
1.909556988e-05
1.909556843e-05
1.909556987e-05
1.909558195e-05
1.90955805e-05
1.909558194e-05
1.916374002e-05
1.916373817e-05
1.916374001e-05
1.916375169e-05
1.916374985e-05
1.916375168e-05
1.9163767e-05
1.916376515e-05
1.916376699e-05
1.920308033e-05
1.920307825e-05
1.920308032e-05
1.920309366e-05
1.920309157e-05
1.920309365e-05
1.920311107e-05
1.920310899e-05
1.920311106e-05
)
;

boundaryField
{
    inlet
    {
        type            calculated;
        value           nonuniform 0();
    }
    outlet
    {
        type            calculated;
        value           nonuniform List<scalar> 9(1.957329266e-05 1.956958074e-05 1.957536492e-05 1.956844318e-05 1.956476199e-05 1.957048781e-05 1.957329159e-05 1.956958035e-05 1.957536545e-05);
    }
    walls
    {
        type            calculated;
        value           nonuniform List<scalar> 
36
(
1.918620049e-05
1.939307689e-05
1.957329266e-05
1.9183207e-05
1.938902735e-05
1.956844318e-05
1.91862002e-05
1.939307551e-05
1.957329159e-05
1.918689672e-05
1.939417029e-05
1.957536492e-05
1.918388983e-05
1.93901012e-05
1.957048781e-05
1.9186897e-05
1.939417045e-05
1.957536545e-05
1.91862002e-05
1.918356029e-05
1.9186897e-05
1.939307551e-05
1.9389595e-05
1.939417045e-05
1.957329159e-05
1.956958035e-05
1.957536545e-05
1.918620049e-05
1.918356039e-05
1.918689672e-05
1.939307689e-05
1.938959555e-05
1.939417029e-05
1.957329266e-05
1.956958074e-05
1.957536492e-05
)
;
    }
    procBoundary1to0
    {
        type            processor;
        value           nonuniform List<scalar> 9(1.901650289e-05 1.901650189e-05 1.901650288e-05 1.901650964e-05 1.901650864e-05 1.901650963e-05 1.901651837e-05 1.901651737e-05 1.901651835e-05);
    }
}


// ************************************************************************* //
