/*--------------------------------*- C++ -*----------------------------------*\
  =========                 |
  \\      /  F ield         | OpenFOAM: The Open Source CFD Toolbox
   \\    /   O peration     | Website:  https://openfoam.org
    \\  /    A nd           | Version:  7
     \\/     M anipulation  |
\*---------------------------------------------------------------------------*/
FoamFile
{
    version     2.0;
    format      ascii;
    class       volScalarField;
    location    "0.02";
    object      pDyn;
}
// * * * * * * * * * * * * * * * * * * * * * * * * * * * * * * * * * * * * * //

dimensions      [1 -1 -2 0 0 0 0];

internalField   nonuniform List<scalar> 
27
(
1.518204482
1.562170296
1.518169033
1.553838503
1.598295002
1.553858872
1.502512908
1.546377602
1.50254303
1.26564897
1.316216911
1.265707884
1.302007556
1.353563192
1.302017681
1.239427214
1.289532024
1.2394156
1.13545462
1.193588131
1.135425646
1.154679596
1.213963786
1.154656372
1.064239247
1.12057596
1.064227404
)
;

boundaryField
{
    inlet
    {
        type            calculated;
        value           nonuniform 0();
    }
    outlet
    {
        type            calculated;
        value           nonuniform List<scalar> 9(1.135462051 1.154687447 1.064246802 1.193595918 1.213972015 1.120583896 1.135433076 1.154664221 1.064234959);
    }
    walls
    {
        type            calculated;
        value           uniform 0;
    }
    procBoundary1to0
    {
        type            processor;
        value           nonuniform List<scalar> 9(1.813705464 1.848613975 1.813690773 1.844716526 1.879838101 1.844774141 1.806599363 1.84153447 1.806652028);
    }
}


// ************************************************************************* //
