/*--------------------------------*- C++ -*----------------------------------*\
  =========                 |
  \\      /  F ield         | OpenFOAM: The Open Source CFD Toolbox
   \\    /   O peration     | Website:  https://openfoam.org
    \\  /    A nd           | Version:  7
     \\/     M anipulation  |
\*---------------------------------------------------------------------------*/
FoamFile
{
    version     2.0;
    format      ascii;
    class       surfaceScalarField;
    location    "0.02";
    object      rhoPhi;
}
// * * * * * * * * * * * * * * * * * * * * * * * * * * * * * * * * * * * * * //

dimensions      [1 0 -1 0 0 0 0];

internalField   nonuniform List<scalar> 
54
(
5.373910188e-08
-3.108405849e-08
2.852228549e-05
-5.799119692e-08
-2.675589428e-08
2.904526248e-05
-2.887331631e-08
2.851761357e-05
5.838704583e-08
-1.399349912e-07
2.891147568e-05
-5.52621939e-08
-1.370272176e-07
2.94420179e-05
-1.380709517e-07
2.891336708e-05
5.649802604e-08
2.82611819e-05
-5.670203477e-08
2.879370356e-05
2.826177638e-05
4.887734106e-08
-1.191242694e-07
2.704664817e-05
-4.361126819e-08
-1.229705545e-07
2.76834636e-05
-1.211646001e-07
2.704937369e-05
4.557782864e-08
-2.068814569e-07
2.738571846e-05
-4.820517473e-08
-2.113362401e-07
2.802416276e-05
-2.092679215e-07
2.738527746e-05
4.738428165e-08
2.647897002e-05
-4.656382904e-08
2.71167202e-05
2.64779978e-05
2.49956471e-08
-3.58938053e-07
-2.948542683e-08
-3.527952145e-07
-3.552520781e-07
2.963990834e-08
-4.152015498e-07
-2.738290535e-08
-4.114726924e-07
-4.141621141e-07
2.898009827e-08
-2.875427278e-08
)
;

boundaryField
{
    inlet
    {
        type            calculated;
        value           nonuniform 0();
    }
    outlet
    {
        type            calculated;
        value           nonuniform List<scalar> 9(2.670764631e-05 2.673111975e-05 2.53726318e-05 2.740384216e-05 2.74446092e-05 2.608682151e-05 2.670215197e-05 2.673558813e-05 2.537293864e-05);
    }
    walls
    {
        type            calculated;
        value           uniform 0;
    }
    procBoundary1to0
    {
        type            processor;
        value           nonuniform List<scalar> 9(-3.084237084e-05 -3.124464888e-05 -3.084407538e-05 -3.119259378e-05 -3.159160546e-05 -3.119102511e-05 -3.074287979e-05 -3.114345098e-05 -3.074179544e-05);
    }
}


// ************************************************************************* //
