/*--------------------------------*- C++ -*----------------------------------*\
  =========                 |
  \\      /  F ield         | OpenFOAM: The Open Source CFD Toolbox
   \\    /   O peration     | Website:  https://openfoam.org
    \\  /    A nd           | Version:  7
     \\/     M anipulation  |
\*---------------------------------------------------------------------------*/
FoamFile
{
    version     2.0;
    format      ascii;
    class       volScalarField::Internal;
    location    "0.02";
    object      steelCloud:UCoeff;
}
// * * * * * * * * * * * * * * * * * * * * * * * * * * * * * * * * * * * * * //

dimensions      [1 0 0 0 0 0 0];

value           nonuniform List<scalar> 
27
(
2.249101356e-08
2.251546244e-08
2.249101356e-08
2.251546244e-08
2.254204358e-08
2.251546244e-08
2.249101356e-08
2.251546244e-08
2.249101356e-08
1.780506202e-08
1.781547707e-08
1.780506202e-08
1.781547707e-08
1.782650377e-08
1.781547707e-08
1.780506202e-08
1.781547707e-08
1.780506202e-08
1.518406188e-08
1.518884035e-08
1.518406188e-08
1.518884035e-08
1.519379783e-08
1.518884035e-08
1.518406188e-08
1.518884035e-08
1.518406188e-08
)
;


// ************************************************************************* //
