/*--------------------------------*- C++ -*----------------------------------*\
  =========                 |
  \\      /  F ield         | OpenFOAM: The Open Source CFD Toolbox
   \\    /   O peration     | Website:  https://openfoam.org
    \\  /    A nd           | Version:  7
     \\/     M anipulation  |
\*---------------------------------------------------------------------------*/
FoamFile
{
    version     2.0;
    format      ascii;
    class       volVectorField::Internal;
    location    "0.02";
    object      steelCloud:UTrans;
}
// * * * * * * * * * * * * * * * * * * * * * * * * * * * * * * * * * * * * * //

dimensions      [1 1 -1 0 0 0 0];

value           nonuniform List<vector> 
27
(
(-4.050208434e-08 -1.199199459e-12 -1.952587501e-10)
(-4.054611217e-08 -1.20050305e-12 -1.954710063e-10)
(-4.050208434e-08 -1.199199459e-12 -1.952587501e-10)
(-4.054611217e-08 -1.20050305e-12 -1.954710063e-10)
(-4.059397981e-08 -1.201920331e-12 -1.957017741e-10)
(-4.054611217e-08 -1.20050305e-12 -1.954710063e-10)
(-4.050208434e-08 -1.199199459e-12 -1.952587501e-10)
(-4.054611217e-08 -1.20050305e-12 -1.954710063e-10)
(-4.050208434e-08 -1.199199459e-12 -1.952587501e-10)
(-3.206356716e-08 -9.493489781e-13 -1.545770334e-10)
(-3.20823227e-08 -9.499042987e-13 -1.546674531e-10)
(-3.206356716e-08 -9.493489781e-13 -1.545770335e-10)
(-3.20823227e-08 -9.499042987e-13 -1.546674531e-10)
(-3.210217971e-08 -9.504922318e-13 -1.547631829e-10)
(-3.20823227e-08 -9.499042988e-13 -1.546674531e-10)
(-3.206356716e-08 -9.493489781e-13 -1.545770335e-10)
(-3.20823227e-08 -9.499042988e-13 -1.546674531e-10)
(-3.206356716e-08 -9.493489782e-13 -1.545770335e-10)
(-2.734363898e-08 -8.095997427e-13 -1.318224693e-10)
(-2.735224411e-08 -8.098545264e-13 -1.318639543e-10)
(-2.734363898e-08 -8.095997427e-13 -1.318224693e-10)
(-2.735224411e-08 -8.098545264e-13 -1.318639543e-10)
(-2.736117159e-08 -8.101188544e-13 -1.319069933e-10)
(-2.735224411e-08 -8.098545265e-13 -1.318639543e-10)
(-2.734363898e-08 -8.095997427e-13 -1.318224693e-10)
(-2.735224411e-08 -8.098545265e-13 -1.318639543e-10)
(-2.734363898e-08 -8.095997427e-13 -1.318224693e-10)
)
;


// ************************************************************************* //
