/*--------------------------------*- C++ -*----------------------------------*\
  =========                 |
  \\      /  F ield         | OpenFOAM: The Open Source CFD Toolbox
   \\    /   O peration     | Website:  https://openfoam.org
    \\  /    A nd           | Version:  7
     \\/     M anipulation  |
\*---------------------------------------------------------------------------*/
FoamFile
{
    version     2.0;
    format      ascii;
    class       volScalarField;
    location    "0.02";
    object      T;
}
// * * * * * * * * * * * * * * * * * * * * * * * * * * * * * * * * * * * * * //

dimensions      [0 0 0 1 0 0 0];

internalField   nonuniform List<scalar> 
27
(
308.6325357
308.5675701
308.6324882
308.5758669
308.5129782
308.5758063
308.6488727
308.5835165
308.6488358
312.3028464
312.194712
312.302842
312.21321
312.1073392
312.2131774
312.3390165
312.229991
312.3389993
315.9088323
315.7574724
315.9088031
315.797953
315.648513
315.7979218
315.9839473
315.8307857
315.9839281
)
;

boundaryField
{
    inlet
    {
        type            fixedValue;
        value           nonuniform 0();
    }
    outlet
    {
        type            zeroGradient;
    }
    walls
    {
        type            zeroGradient;
    }
    procBoundary1to0
    {
        type            processor;
        value           nonuniform List<scalar> 9(305.142024 305.1124867 305.1420398 305.1152095 305.0871331 305.1151727 305.147336 305.1176333 305.1472913);
    }
}


// ************************************************************************* //
