/*--------------------------------*- C++ -*----------------------------------*\
  =========                 |
  \\      /  F ield         | OpenFOAM: The Open Source CFD Toolbox
   \\    /   O peration     | Website:  https://openfoam.org
    \\  /    A nd           | Version:  7
     \\/     M anipulation  |
\*---------------------------------------------------------------------------*/
FoamFile
{
    version     2.0;
    format      ascii;
    class       volScalarField;
    location    "0.02";
    object      Tavg;
}
// * * * * * * * * * * * * * * * * * * * * * * * * * * * * * * * * * * * * * //

dimensions      [0 0 0 1 0 0 0];

internalField   nonuniform List<scalar> 
27
(
312.1033871
312.1033592
312.1033869
312.1035646
312.1035367
312.1035644
312.1037972
312.1037692
312.103797
313.407997
313.4079614
313.4079968
313.4082224
313.4081868
313.4082222
313.408518
313.4084824
313.4085179
314.1611246
314.1610844
314.1611244
314.1613821
314.1613418
314.1613819
314.1617186
314.1616783
314.1617184
)
;

boundaryField
{
    inlet
    {
        type            fixedValue;
        value           nonuniform 0();
    }
    outlet
    {
        type            zeroGradient;
    }
    walls
    {
        type            zeroGradient;
    }
    procBoundary1to0
    {
        type            processor;
        value           nonuniform List<scalar> 9(310.5915726 310.5915535 310.5915724 310.5917027 310.5916836 310.5917025 310.5918706 310.5918514 310.5918704);
    }
}


// ************************************************************************* //
