/*--------------------------------*- C++ -*----------------------------------*\
  =========                 |
  \\      /  F ield         | OpenFOAM: The Open Source CFD Toolbox
   \\    /   O peration     | Website:  https://openfoam.org
    \\  /    A nd           | Version:  7
     \\/     M anipulation  |
\*---------------------------------------------------------------------------*/
FoamFile
{
    version     2.0;
    format      ascii;
    class       volVectorField;
    location    "0.02";
    object      Uavg;
}
// * * * * * * * * * * * * * * * * * * * * * * * * * * * * * * * * * * * * * //

dimensions      [0 1 -1 0 0 0 0];

internalField   nonuniform List<vector> 
27
(
(1.120497577 6.634470648e-05 -0.01034750593)
(1.120505407 6.068155912e-06 -0.01034748595)
(1.120497631 -5.42072985e-05 -0.01034743703)
(1.120353139 6.630967458e-05 -0.01039865649)
(1.120360967 6.100240039e-06 -0.01039863927)
(1.120353182 -5.410868528e-05 -0.01039859466)
(1.120193256 6.626584422e-05 -0.0104737744)
(1.120201078 6.130286629e-06 -0.01047376935)
(1.120193288 -5.400520126e-05 -0.01047372066)
(1.119559812 7.572410874e-05 -0.01179685941)
(1.119571446 5.288437611e-06 -0.01179685213)
(1.119559824 -6.514459916e-05 -0.01179680395)
(1.11934967 7.565145661e-05 -0.01185420968)
(1.119361304 5.314814753e-06 -0.01185420333)
(1.11934967 -6.501949118e-05 -0.0118541585)
(1.119116561 7.556530398e-05 -0.01194505899)
(1.119128188 5.340204985e-06 -0.0119450698)
(1.11911655 -6.488281664e-05 -0.01194501264)
(1.125414534 8.197969972e-05 -0.01271424454)
(1.125428682 4.842470441e-06 -0.01271424878)
(1.125414511 -7.229084589e-05 -0.01271420662)
(1.125158114 8.187824555e-05 -0.01277597236)
(1.125172264 4.860718571e-06 -0.01277597737)
(1.125158081 -7.215287203e-05 -0.01277593688)
(1.124873784 8.17584716e-05 -0.01287707231)
(1.124887927 4.878696001e-06 -0.01287709847)
(1.124873742 -7.199713619e-05 -0.01287703923)
)
;

boundaryField
{
    inlet
    {
        type            interstitialInletVelocity;
        inletVelocity   nonuniform 0();
        value           nonuniform 0();
    }
    outlet
    {
        type            pressureInletOutletVelocity;
        phi             alphaRhoPhi;
        value           nonuniform List<vector> 9((1.440289233 0.00406438459 -0.03820860632) (1.452774235 0.004094703403 0.003989432534) (1.394180852 0.003913390209 -0.04688093013) (1.476510069 -6.099726035e-06 -0.03837271704) (1.48939073 -1.030641165e-05 0.004318674129) (1.430428992 -1.266221051e-05 -0.04727328055) (1.440270698 -0.004061532874 -0.0382126293) (1.452759621 -0.004095881369 0.003982869628) (1.394173011 -0.003916999076 -0.04688349282));
    }
    walls
    {
        type            noSlip;
    }
    procBoundary1to0
    {
        type            processor;
        value           nonuniform List<vector> 9((1.140688814 5.911384287e-05 -0.008885225409) (1.140693837 6.990013631e-06 -0.008885205905) (1.140688903 -4.513664067e-05 -0.008885162991) (1.140603851 5.910001185e-05 -0.008930886758) (1.140608868 7.01757611e-06 -0.008930869569) (1.140603928 -4.50677262e-05 -0.008930833844) (1.14050901 5.908498965e-05 -0.00899398063) (1.140514023 7.042880407e-06 -0.00899396981) (1.140509075 -4.500206875e-05 -0.008993937236));
    }
}


// ************************************************************************* //
