/*--------------------------------*- C++ -*----------------------------------*\
  =========                 |
  \\      /  F ield         | OpenFOAM: The Open Source CFD Toolbox
   \\    /   O peration     | Website:  https://openfoam.org
    \\  /    A nd           | Version:  7
     \\/     M anipulation  |
\*---------------------------------------------------------------------------*/
FoamFile
{
    version     2.0;
    format      ascii;
    class       volScalarField;
    location    "0.035";
    object      cpavg;
}
// * * * * * * * * * * * * * * * * * * * * * * * * * * * * * * * * * * * * * //

dimensions      [0 2 -2 -1 0 0 0];

internalField   nonuniform List<scalar> 
27
(
1011.633641
1011.633641
1011.633641
1011.633646
1011.633645
1011.633646
1011.63365
1011.63365
1011.63365
1011.653903
1011.653902
1011.653903
1011.653909
1011.653909
1011.653909
1011.653916
1011.653916
1011.653916
1011.689075
1011.689074
1011.689075
1011.689085
1011.689085
1011.689085
1011.689098
1011.689097
1011.689098
)
;

boundaryField
{
    inlet
    {
        type            calculated;
        value           uniform 1011.338357;
    }
    outlet
    {
        type            calculated;
        value           nonuniform 0();
    }
    walls
    {
        type            calculated;
        value           nonuniform List<scalar> 
36
(
1011.442087
1011.543231
1011.643774
1011.442277
1011.543227
1011.64299
1011.442087
1011.543229
1011.643779
1011.442087
1011.543169
1011.64381
1011.442277
1011.543167
1011.643015
1011.442087
1011.543168
1011.643812
1011.442087
1011.442277
1011.442087
1011.543229
1011.543197
1011.543168
1011.643779
1011.643001
1011.643812
1011.442087
1011.442277
1011.442087
1011.543231
1011.543196
1011.543169
1011.643774
1011.643001
1011.64381
)
;
    }
    procBoundary0to1
    {
        type            processor;
        value           nonuniform List<scalar> 9(1011.730017 1011.730015 1011.730017 1011.730034 1011.730033 1011.730034 1011.730055 1011.730053 1011.730055);
    }
}


// ************************************************************************* //
