/*--------------------------------*- C++ -*----------------------------------*\
  =========                 |
  \\      /  F ield         | OpenFOAM: The Open Source CFD Toolbox
   \\    /   O peration     | Website:  https://openfoam.org
    \\  /    A nd           | Version:  7
     \\/     M anipulation  |
\*---------------------------------------------------------------------------*/
FoamFile
{
    version     2.0;
    format      ascii;
    class       volScalarField;
    location    "0.035";
    object      muavg;
}
// * * * * * * * * * * * * * * * * * * * * * * * * * * * * * * * * * * * * * //

dimensions      [1 -1 -1 0 0 0 0];

internalField   nonuniform List<scalar> 
27
(
1.861989813e-05
1.861989799e-05
1.861989815e-05
1.86199016e-05
1.861990146e-05
1.861990162e-05
1.861990535e-05
1.861990522e-05
1.861990537e-05
1.863761309e-05
1.863761276e-05
1.863761311e-05
1.863761832e-05
1.863761799e-05
1.863761835e-05
1.863762424e-05
1.86376239e-05
1.863762426e-05
1.866830582e-05
1.866830508e-05
1.866830587e-05
1.866831475e-05
1.866831401e-05
1.86683148e-05
1.866832519e-05
1.866832444e-05
1.866832524e-05
)
;

boundaryField
{
    inlet
    {
        type            calculated;
        value           uniform 1.835366622e-05;
    }
    outlet
    {
        type            calculated;
        value           nonuniform 0();
    }
    walls
    {
        type            calculated;
        value           nonuniform List<scalar> 
36
(
1.844992136e-05
1.854183175e-05
1.86313939e-05
1.845009559e-05
1.854182802e-05
1.863070139e-05
1.844992135e-05
1.854182948e-05
1.863139761e-05
1.844992118e-05
1.854177584e-05
1.863142485e-05
1.845009541e-05
1.854177391e-05
1.863072368e-05
1.844992118e-05
1.854177445e-05
1.86314268e-05
1.844992135e-05
1.845009549e-05
1.844992118e-05
1.854182948e-05
1.854180073e-05
1.854177445e-05
1.863139761e-05
1.863071152e-05
1.86314268e-05
1.844992136e-05
1.845009549e-05
1.844992118e-05
1.854183175e-05
1.854180042e-05
1.854177584e-05
1.86313939e-05
1.863071148e-05
1.863142485e-05
)
;
    }
    procBoundary0to1
    {
        type            processor;
        value           nonuniform List<scalar> 9(1.870394233e-05 1.870394094e-05 1.87039424e-05 1.870395671e-05 1.870395532e-05 1.870395677e-05 1.870397387e-05 1.870397247e-05 1.870397393e-05);
    }
}


// ************************************************************************* //
