/*--------------------------------*- C++ -*----------------------------------*\
  =========                 |
  \\      /  F ield         | OpenFOAM: The Open Source CFD Toolbox
   \\    /   O peration     | Website:  https://openfoam.org
    \\  /    A nd           | Version:  7
     \\/     M anipulation  |
\*---------------------------------------------------------------------------*/
FoamFile
{
    version     2.0;
    format      ascii;
    class       volScalarField;
    location    "0.035";
    object      p;
}
// * * * * * * * * * * * * * * * * * * * * * * * * * * * * * * * * * * * * * //

dimensions      [1 -1 -2 0 0 0 0];

internalField   nonuniform List<scalar> 
27
(
101329.154
101329.1473
101329.154
101329.087
101329.0804
101329.087
101329.0344
101329.0276
101329.0344
101327.6174
101327.613
101327.6174
101327.5507
101327.5463
101327.5507
101327.494
101327.4895
101327.494
101326.4464
101326.4421
101326.4464
101326.3807
101326.3763
101326.3807
101326.325
101326.3204
101326.325
)
;

boundaryField
{
    inlet
    {
        type            zeroGradient;
    }
    outlet
    {
        type            totalPressure;
        rho             rho;
        psi             none;
        gamma           1;
        p0              nonuniform 0();
        value           nonuniform 0();
    }
    walls
    {
        type            zeroGradient;
    }
    procBoundary0to1
    {
        type            processor;
        value           nonuniform List<scalar> 9(101325.8591 101325.8559 101325.8591 101325.7989 101325.7955 101325.7989 101325.7462 101325.7426 101325.7462);
    }
}


// ************************************************************************* //
