/*--------------------------------*- C++ -*----------------------------------*\
  =========                 |
  \\      /  F ield         | OpenFOAM: The Open Source CFD Toolbox
   \\    /   O peration     | Website:  https://openfoam.org
    \\  /    A nd           | Version:  7
     \\/     M anipulation  |
\*---------------------------------------------------------------------------*/
FoamFile
{
    version     2.0;
    format      ascii;
    class       volScalarField;
    location    "0.035";
    object      pDyn;
}
// * * * * * * * * * * * * * * * * * * * * * * * * * * * * * * * * * * * * * //

dimensions      [1 -1 -2 0 0 0 0];

internalField   nonuniform List<scalar> 
27
(
1.710597637
1.724566273
1.710612119
1.725300747
1.739636427
1.725314203
1.712093788
1.726096475
1.712109139
1.888098682
1.912757983
1.888128168
1.913718202
1.938466064
1.913708432
1.890079436
1.914802473
1.890091428
1.835431148
1.873215828
1.835355102
1.871102657
1.909231783
1.87109679
1.831585939
1.869609185
1.831544816
)
;

boundaryField
{
    inlet
    {
        type            calculated;
        value           nonuniform List<scalar> 9(2.217813767 2.222725035 2.217811152 2.222726356 2.228226877 2.222723734 2.217813767 2.222725036 2.217811153);
    }
    outlet
    {
        type            calculated;
        value           nonuniform 0();
    }
    walls
    {
        type            calculated;
        value           uniform 0;
    }
    procBoundary0to1
    {
        type            processor;
        value           nonuniform List<scalar> 9(1.58671705 1.637154751 1.586647311 1.627474324 1.678662607 1.6274635 1.569622597 1.620241534 1.569560575);
    }
}


// ************************************************************************* //
