/*--------------------------------*- C++ -*----------------------------------*\
  =========                 |
  \\      /  F ield         | OpenFOAM: The Open Source CFD Toolbox
   \\    /   O peration     | Website:  https://openfoam.org
    \\  /    A nd           | Version:  7
     \\/     M anipulation  |
\*---------------------------------------------------------------------------*/
FoamFile
{
    version     2.0;
    format      ascii;
    class       surfaceScalarField;
    location    "0.035";
    object      phi;
}
// * * * * * * * * * * * * * * * * * * * * * * * * * * * * * * * * * * * * * //

dimensions      [0 3 -1 0 0 0 0];

internalField   nonuniform List<scalar> 
54
(
3.543315729e-08
4.888789106e-08
3.06042271e-05
-3.533756983e-08
4.817091825e-08
3.074339782e-05
4.886718271e-08
3.060433166e-05
3.484579449e-08
-2.23432875e-08
3.075689956e-05
-3.480260292e-08
-2.180105292e-08
3.089723847e-05
-2.233783536e-08
3.075691907e-05
3.562366428e-08
3.063003009e-05
-3.554809529e-08
3.076962024e-05
3.063010431e-05
3.990479155e-08
2.565858539e-08
2.901931829e-05
-4.005667022e-08
2.549818495e-08
2.926087841e-05
2.570152707e-08
2.901923559e-05
3.994405178e-08
-5.503039519e-08
2.926043125e-05
-3.996237931e-08
-5.492196561e-08
2.95019144e-05
-5.50370965e-08
2.926046799e-05
4.025424934e-08
2.901509414e-05
-4.03576184e-08
2.925794742e-05
2.901506051e-05
5.084972741e-08
9.595863561e-09
-5.092974245e-08
9.924517162e-09
9.581859552e-09
5.123913475e-08
-9.029456824e-08
-5.135618212e-08
-9.03678181e-08
-9.031123424e-08
5.125058305e-08
-5.137193836e-08
)
;

boundaryField
{
    inlet
    {
        type            calculated;
        value           nonuniform List<scalar> 9(-3.102855299e-05 -3.106290004e-05 -3.102855299e-05 -3.106290004e-05 -3.11013218e-05 -3.106290004e-05 -3.102855299e-05 -3.106290004e-05 -3.102855299e-05);
    }
    outlet
    {
        type            calculated;
        value           nonuniform 0();
    }
    walls
    {
        type            calculated;
        value           uniform 0;
    }
    procBoundary0to1
    {
        type            processor;
        value           nonuniform List<scalar> 9(2.699887346e-05 2.735899788e-05 2.69987171e-05 2.731711842e-05 2.76769262e-05 2.731704862e-05 2.691708483e-05 2.727989184e-05 2.69169202e-05);
    }
}


// ************************************************************************* //
