/*--------------------------------*- C++ -*----------------------------------*\
  =========                 |
  \\      /  F ield         | OpenFOAM: The Open Source CFD Toolbox
   \\    /   O peration     | Website:  https://openfoam.org
    \\  /    A nd           | Version:  7
     \\/     M anipulation  |
\*---------------------------------------------------------------------------*/
FoamFile
{
    version     2.0;
    format      ascii;
    class       surfaceScalarField;
    location    "0.035";
    object      rhoPhi;
}
// * * * * * * * * * * * * * * * * * * * * * * * * * * * * * * * * * * * * * //

dimensions      [1 0 -1 0 0 0 0];

internalField   nonuniform List<scalar> 
54
(
4.152345867e-08
5.729079432e-08
3.575942423e-05
-4.141144151e-08
5.644986698e-08
3.592176047e-05
5.726652661e-08
3.575954782e-05
4.083459391e-08
-2.618366046e-08
3.593755473e-05
-4.078397919e-08
-2.554790032e-08
3.610115424e-05
-2.617727121e-08
3.593757749e-05
4.174666143e-08
3.578960861e-05
-4.165810365e-08
3.595243436e-05
3.578969624e-05
4.648924207e-08
2.989237893e-08
3.372022737e-05
-4.666618317e-08
2.970535103e-08
3.400139166e-05
2.994240735e-08
3.372013143e-05
4.653480394e-08
-6.411078317e-08
3.400090704e-05
-4.655615546e-08
-6.398411521e-08
3.428181704e-05
-6.411859178e-08
3.400094974e-05
4.689650819e-08
3.371537473e-05
-4.701693512e-08
3.399804771e-05
3.371533594e-05
5.893468006e-08
1.112157925e-08
-5.902741517e-08
1.150281323e-08
1.110534827e-08
5.938770796e-08
-1.046511629e-07
-5.952336947e-08
-1.047390406e-07
-1.046704771e-07
5.939929107e-08
-5.953994057e-08
)
;

boundaryField
{
    inlet
    {
        type            calculated;
        value           nonuniform List<scalar> 9(-3.659598593e-05 -3.663647163e-05 -3.659594273e-05 -3.663649343e-05 -3.668178496e-05 -3.663645015e-05 -3.659598594e-05 -3.663647163e-05 -3.659594274e-05);
    }
    outlet
    {
        type            calculated;
        value           nonuniform 0();
    }
    walls
    {
        type            calculated;
        value           uniform 0;
    }
    procBoundary0to1
    {
        type            processor;
        value           nonuniform List<scalar> 9(3.121739598e-05 3.16358873e-05 3.121721197e-05 3.158731437e-05 3.200526569e-05 3.158723223e-05 3.112252145e-05 3.15441303e-05 3.112232809e-05);
    }
}


// ************************************************************************* //
