/*--------------------------------*- C++ -*----------------------------------*\
  =========                 |
  \\      /  F ield         | OpenFOAM: The Open Source CFD Toolbox
   \\    /   O peration     | Website:  https://openfoam.org
    \\  /    A nd           | Version:  7
     \\/     M anipulation  |
\*---------------------------------------------------------------------------*/
FoamFile
{
    version     2.0;
    format      ascii;
    class       volVectorField::Internal;
    location    "0.035";
    object      steelCloud:UTrans;
}
// * * * * * * * * * * * * * * * * * * * * * * * * * * * * * * * * * * * * * //

dimensions      [1 1 -1 0 0 0 0];

value           nonuniform List<vector> 
27
(
(-6.379147466e-08 2.177115391e-13 -2.850342317e-10)
(-6.391379387e-08 2.181289977e-13 -2.855807806e-10)
(-6.379147466e-08 2.177115391e-13 -2.850342317e-10)
(-6.391379387e-08 2.181289977e-13 -2.855807806e-10)
(-6.405030408e-08 2.185948883e-13 -2.861907381e-10)
(-6.391379387e-08 2.181289977e-13 -2.855807806e-10)
(-6.379147466e-08 2.177115391e-13 -2.850342317e-10)
(-6.391379387e-08 2.181289977e-13 -2.855807806e-10)
(-6.379147466e-08 2.177115391e-13 -2.850342317e-10)
(-5.919345465e-08 2.020191285e-13 -2.644892748e-10)
(-5.932011799e-08 2.02451413e-13 -2.650552342e-10)
(-5.919345465e-08 2.020191285e-13 -2.644892748e-10)
(-5.932011799e-08 2.02451413e-13 -2.650552342e-10)
(-5.946631312e-08 2.029503569e-13 -2.657084659e-10)
(-5.932011799e-08 2.02451413e-13 -2.650552342e-10)
(-5.919345465e-08 2.020191285e-13 -2.644892748e-10)
(-5.932011799e-08 2.02451413e-13 -2.650552342e-10)
(-5.919345465e-08 2.020191285e-13 -2.644892748e-10)
(-5.060784767e-08 1.727176314e-13 -2.261269089e-10)
(-5.069467639e-08 1.730139659e-13 -2.265148786e-10)
(-5.060784767e-08 1.727176314e-13 -2.261269089e-10)
(-5.069467639e-08 1.730139659e-13 -2.265148786e-10)
(-5.079217193e-08 1.733467047e-13 -2.269505099e-10)
(-5.069467639e-08 1.730139659e-13 -2.265148786e-10)
(-5.060784767e-08 1.727176314e-13 -2.261269089e-10)
(-5.069467639e-08 1.730139659e-13 -2.265148786e-10)
(-5.060784767e-08 1.727176314e-13 -2.261269089e-10)
)
;


// ************************************************************************* //
