/*--------------------------------*- C++ -*----------------------------------*\
  =========                 |
  \\      /  F ield         | OpenFOAM: The Open Source CFD Toolbox
   \\    /   O peration     | Website:  https://openfoam.org
    \\  /    A nd           | Version:  7
     \\/     M anipulation  |
\*---------------------------------------------------------------------------*/
FoamFile
{
    version     2.0;
    format      ascii;
    class       volScalarField::Internal;
    location    "0.035";
    object      steelCloud:hsTrans;
}
// * * * * * * * * * * * * * * * * * * * * * * * * * * * * * * * * * * * * * //

dimensions      [1 2 -2 0 0 0 0];

value           nonuniform List<scalar> 
27
(
0.0002315993047
0.0002320433929
0.0002315993047
0.0002320433929
0.0002325390025
0.0002320433929
0.0002315993047
0.0002320433929
0.0002315993047
0.000214905879
0.0002153657389
0.000214905879
0.0002153657389
0.0002158965103
0.0002153657389
0.000214905879
0.0002153657389
0.000214905879
0.0001837352466
0.0001840504842
0.0001837352466
0.0001840504842
0.0001844044484
0.0001840504842
0.0001837352466
0.0001840504842
0.0001837352466
)
;


// ************************************************************************* //
