/*--------------------------------*- C++ -*----------------------------------*\
  =========                 |
  \\      /  F ield         | OpenFOAM: The Open Source CFD Toolbox
   \\    /   O peration     | Website:  https://openfoam.org
    \\  /    A nd           | Version:  7
     \\/     M anipulation  |
\*---------------------------------------------------------------------------*/
FoamFile
{
    version     2.0;
    format      ascii;
    class       volScalarField;
    location    "0.035";
    object      Tavg;
}
// * * * * * * * * * * * * * * * * * * * * * * * * * * * * * * * * * * * * * //

dimensions      [0 0 0 1 0 0 0];

internalField   nonuniform List<scalar> 
27
(
303.0248039
303.0248014
303.0248043
303.02487
303.0248674
303.0248704
303.0249415
303.0249389
303.0249419
303.3603564
303.3603502
303.360357
303.3604562
303.3604499
303.3604567
303.3605688
303.3605625
303.3605693
303.9418624
303.9418482
303.9418633
303.9420325
303.9420183
303.9420334
303.9422314
303.9422171
303.9422322
)
;

boundaryField
{
    inlet
    {
        type            fixedValue;
        value           uniform 298;
    }
    outlet
    {
        type            zeroGradient;
    }
    walls
    {
        type            zeroGradient;
    }
    procBoundary0to1
    {
        type            processor;
        value           nonuniform List<scalar> 9(304.6172388 304.6172124 304.61724 304.6175128 304.6174864 304.617514 304.6178396 304.6178131 304.6178408);
    }
}


// ************************************************************************* //
