/*--------------------------------*- C++ -*----------------------------------*\
  =========                 |
  \\      /  F ield         | OpenFOAM: The Open Source CFD Toolbox
   \\    /   O peration     | Website:  https://openfoam.org
    \\  /    A nd           | Version:  7
     \\/     M anipulation  |
\*---------------------------------------------------------------------------*/
FoamFile
{
    version     2.0;
    format      ascii;
    class       volVectorField;
    location    "0.035";
    object      U;
}
// * * * * * * * * * * * * * * * * * * * * * * * * * * * * * * * * * * * * * //

dimensions      [0 1 -1 0 0 0 0];

internalField   nonuniform List<vector> 
27
(
(1.711123642 0.001644957998 -0.007624250461)
(1.718130697 2.410524985e-06 -0.007672885533)
(1.711126834 -0.001638951873 -0.007625961805)
(1.718522955 0.001617483527 0.003457556208)
(1.725689019 6.440875974e-07 0.003476670793)
(1.718525653 -0.001613171545 0.003456936489)
(1.711874442 0.001636502405 -0.0110884387)
(1.718897202 1.727210183e-06 -0.01109122581)
(1.711877763 -0.001631157836 -0.01108738812)
(1.801404504 0.002949018932 -0.01505895581)
(1.813192796 -7.512276091e-06 -0.01511016812)
(1.801411663 -0.002948788142 -0.01505398342)
(1.813742218 0.002933554062 0.008118846264)
(1.825522603 -2.57580649e-06 0.008184829248)
(1.813742344 -0.002928419637 0.008120455887)
(1.802376575 0.002924887456 -0.02132356097)
(1.814205179 -5.705037143e-06 -0.02136972476)
(1.802380619 -0.00292288863 -0.0213265685)
(1.779176961 0.004157342186 -0.02264638338)
(1.797517687 -6.420876134e-06 -0.0227028799)
(1.779166311 -0.004152865172 -0.02264790611)
(1.796691495 0.004145568802 0.01300676117)
(1.815004729 -7.664299356e-06 0.01313571484)
(1.796691442 -0.00414237684 0.013005132)
(1.777402128 0.00408750664 -0.03155649016)
(1.795858652 -7.955882807e-06 -0.03166272929)
(1.777396756 -0.00408460032 -0.03155673241)
)
;

boundaryField
{
    inlet
    {
        type            interstitialInletVelocity;
        inletVelocity   uniform (1.23 0 0);
        value           nonuniform List<vector> 9((1.939284562 0 0) (1.941431252 0 0) (1.939284562 0 0) (1.941431252 0 0) (1.943832612 0 0) (1.941431252 0 0) (1.939284562 0 0) (1.941431252 0 0) (1.939284562 0 0));
    }
    outlet
    {
        type            pressureInletOutletVelocity;
        phi             alphaRhoPhi;
        value           nonuniform 0();
    }
    walls
    {
        type            noSlip;
    }
    procBoundary0to1
    {
        type            processor;
        value           nonuniform List<vector> 9((1.658458436 0.005000101468 -0.03145303874) (1.684710407 -1.369875977e-05 -0.03149513415) (1.658438165 -0.005001028796 -0.0314454526) (1.680014092 0.004997388434 0.01633218974) (1.706300099 -4.807845413e-06 0.01658394465) (1.68001207 -0.004989294984 0.01633746138) (1.649520344 0.004885330864 -0.04222649174) (1.676014667 -8.718867163e-06 -0.04238285759) (1.649504081 -0.004881240077 -0.04223056943));
    }
}


// ************************************************************************* //
