/*--------------------------------*- C++ -*----------------------------------*\
  =========                 |
  \\      /  F ield         | OpenFOAM: The Open Source CFD Toolbox
   \\    /   O peration     | Website:  https://openfoam.org
    \\  /    A nd           | Version:  7
     \\/     M anipulation  |
\*---------------------------------------------------------------------------*/
FoamFile
{
    version     2.0;
    format      ascii;
    class       volVectorField;
    location    "0.035";
    object      Uavg;
}
// * * * * * * * * * * * * * * * * * * * * * * * * * * * * * * * * * * * * * //

dimensions      [0 1 -1 0 0 0 0];

internalField   nonuniform List<vector> 
27
(
(1.245515495 5.081157027e-05 -0.009952845474)
(1.245519605 8.051397148e-07 -0.009952860882)
(1.24551554 -4.919641185e-05 -0.00995286337)
(1.245482008 5.077107134e-05 -0.009998200046)
(1.245486122 7.96317848e-07 -0.009998212959)
(1.245482053 -4.91734924e-05 -0.009998218872)
(1.245440332 5.073399231e-05 -0.01006020213)
(1.245444445 7.872949926e-07 -0.01006021492)
(1.245440376 -4.91543896e-05 -0.0100602217)
(1.218014605 5.314734667e-05 -0.01092366154)
(1.218019006 9.435449917e-07 -0.01092367428)
(1.218014607 -5.125492366e-05 -0.01092368005)
(1.217952454 5.309397373e-05 -0.01097109301)
(1.217956858 9.348877907e-07 -0.01097110419)
(1.217952457 -5.121879737e-05 -0.01097111263)
(1.217881523 5.304182803e-05 -0.01103637821)
(1.21788593 9.258867118e-07 -0.01103639059)
(1.217881527 -5.118454585e-05 -0.01103639867)
(1.181417037 5.889944814e-05 -0.01276697111)
(1.181422515 1.257253629e-06 -0.01276697662)
(1.181416963 -5.638024359e-05 -0.01276698932)
(1.181293575 5.881513789e-05 -0.01281929485)
(1.181299061 1.249809852e-06 -0.01281929994)
(1.181293504 -5.631065823e-05 -0.01281931374)
(1.181159217 5.872870023e-05 -0.0128926898)
(1.181164712 1.242326559e-06 -0.01289269824)
(1.181159149 -5.623908401e-05 -0.01289270905)
)
;

boundaryField
{
    inlet
    {
        type            interstitialInletVelocity;
        inletVelocity   uniform (1.23 0 0);
        value           uniform (1.23 0 0);
    }
    outlet
    {
        type            pressureInletOutletVelocity;
        phi             alphaRhoPhi;
        value           nonuniform 0();
    }
    walls
    {
        type            noSlip;
    }
    procBoundary0to1
    {
        type            processor;
        value           nonuniform List<vector> 9((1.158997808 6.977323657e-05 -0.01518120566) (1.159006611 1.705438375e-06 -0.01518119347) (1.158997644 -6.635771781e-05 -0.01518121619) (1.158782556 6.963787167e-05 -0.01524044788) (1.15879138 1.703014202e-06 -0.01524043666) (1.158782399 -6.622730153e-05 -0.01524046101) (1.158549908 6.949224063e-05 -0.01533124782) (1.158558751 1.699188272e-06 -0.01533124795) (1.158549755 -6.608929087e-05 -0.01533126367));
    }
}


// ************************************************************************* //
