/*--------------------------------*- C++ -*----------------------------------*\
  =========                 |
  \\      /  F ield         | OpenFOAM: The Open Source CFD Toolbox
   \\    /   O peration     | Website:  https://openfoam.org
    \\  /    A nd           | Version:  7
     \\/     M anipulation  |
\*---------------------------------------------------------------------------*/
FoamFile
{
    version     2.0;
    format      ascii;
    class       volScalarField;
    location    "0.07";
    object      p;
}
// * * * * * * * * * * * * * * * * * * * * * * * * * * * * * * * * * * * * * //

dimensions      [1 -1 -2 0 0 0 0];

internalField   nonuniform List<scalar> 
27
(
101329.1399
101329.1332
101329.1399
101329.0728
101329.0661
101329.0727
101329.0201
101329.0132
101329.0201
101327.6085
101327.604
101327.6085
101327.5417
101327.5371
101327.5417
101327.4849
101327.4803
101327.4849
101326.4416
101326.4372
101326.4416
101326.3758
101326.3713
101326.3758
101326.32
101326.3154
101326.32
)
;

boundaryField
{
    inlet
    {
        type            zeroGradient;
    }
    outlet
    {
        type            totalPressure;
        rho             rho;
        psi             none;
        gamma           1;
        p0              nonuniform 0();
        value           nonuniform 0();
    }
    walls
    {
        type            zeroGradient;
    }
    procBoundary0to1
    {
        type            processor;
        value           nonuniform List<scalar> 9(101325.8563 101325.853 101325.8563 101325.796 101325.7926 101325.796 101325.7432 101325.7396 101325.7432);
    }
}


// ************************************************************************* //
