/*--------------------------------*- C++ -*----------------------------------*\
  =========                 |
  \\      /  F ield         | OpenFOAM: The Open Source CFD Toolbox
   \\    /   O peration     | Website:  https://openfoam.org
    \\  /    A nd           | Version:  7
     \\/     M anipulation  |
\*---------------------------------------------------------------------------*/
FoamFile
{
    version     2.0;
    format      ascii;
    class       surfaceScalarField;
    location    "0.07";
    object      phi;
}
// * * * * * * * * * * * * * * * * * * * * * * * * * * * * * * * * * * * * * //

dimensions      [0 3 -1 0 0 0 0];

internalField   nonuniform List<scalar> 
54
(
3.574861904e-08
4.936419415e-08
3.061496276e-05
-3.574777442e-08
4.870272536e-08
3.075517177e-05
4.936488886e-08
3.061496218e-05
3.522996568e-08
-2.253655137e-08
3.076875932e-05
-3.52282162e-08
-2.20003855e-08
3.091037267e-05
-2.253690743e-08
3.076875947e-05
3.597770562e-08
3.064100645e-05
-3.597638982e-08
3.078176216e-05
3.064100567e-05
4.048704277e-08
2.680043418e-08
2.902974558e-05
-4.04844333e-08
2.657513268e-08
2.927394049e-05
2.680096233e-08
2.902974696e-05
4.044503822e-08
-5.477968089e-08
2.927400403e-05
-4.044220858e-08
-5.467701154e-08
2.951815251e-05
-5.478002577e-08
2.927400283e-05
4.07983089e-08
2.902709659e-05
-4.079536745e-08
2.927258776e-05
2.90270962e-05
5.145592843e-08
1.131782095e-08
-5.14539784e-08
1.174669083e-08
1.131716359e-08
5.185332624e-08
-8.931517568e-08
-5.185057417e-08
-8.929645649e-08
-8.931576567e-08
5.189046246e-08
-5.18894894e-08
)
;

boundaryField
{
    inlet
    {
        type            calculated;
        value           nonuniform List<scalar> 9(-3.102855299e-05 -3.106290004e-05 -3.102855299e-05 -3.106290004e-05 -3.11013218e-05 -3.106290004e-05 -3.102855299e-05 -3.106290004e-05 -3.102855299e-05);
    }
    outlet
    {
        type            calculated;
        value           nonuniform 0();
    }
    walls
    {
        type            calculated;
        value           uniform 0;
    }
    procBoundary0to1
    {
        type            processor;
        value           nonuniform List<scalar> 9(2.70015886e-05 2.736590283e-05 2.700158695e-05 2.732525361e-05 2.768933049e-05 2.732525483e-05 2.692377464e-05 2.729099952e-05 2.692377662e-05);
    }
}


// ************************************************************************* //
