/*--------------------------------*- C++ -*----------------------------------*\
  =========                 |
  \\      /  F ield         | OpenFOAM: The Open Source CFD Toolbox
   \\    /   O peration     | Website:  https://openfoam.org
    \\  /    A nd           | Version:  7
     \\/     M anipulation  |
\*---------------------------------------------------------------------------*/
FoamFile
{
    version     2.0;
    format      ascii;
    class       surfaceScalarField;
    location    "0.07";
    object      rhoPhi;
}
// * * * * * * * * * * * * * * * * * * * * * * * * * * * * * * * * * * * * * //

dimensions      [1 0 -1 0 0 0 0];

internalField   nonuniform List<scalar> 
54
(
4.187912606e-08
5.782961011e-08
3.575326372e-05
-4.187813658e-08
5.705393761e-08
3.591669842e-05
5.783042395e-08
3.575326306e-05
4.127094854e-08
-2.640130643e-08
3.593259385e-05
-4.126889907e-08
-2.577284696e-08
3.609756341e-05
-2.640172356e-08
3.593259403e-05
4.214744923e-08
3.578372992e-05
-4.214590779e-08
3.594780443e-05
3.578372901e-05
4.713393115e-08
3.12003811e-08
3.37057802e-05
-4.713089328e-08
3.093789289e-08
3.398967681e-05
3.120099597e-08
3.370578183e-05
4.708482956e-08
-6.377323515e-08
3.398982262e-05
-4.708153539e-08
-6.365330504e-08
3.427349133e-05
-6.377363666e-08
3.398982123e-05
4.749649356e-08
3.3702832e-05
-4.749306919e-08
3.398824136e-05
3.370283156e-05
5.958565824e-08
1.310598298e-08
-5.958340016e-08
1.360292273e-08
1.310522177e-08
6.004733962e-08
-1.034267309e-07
-6.004415266e-08
-1.034074304e-07
-1.034274142e-07
6.008906594e-08
-6.008793915e-08
)
;

boundaryField
{
    inlet
    {
        type            calculated;
        value           nonuniform List<scalar> 9(-3.659598086e-05 -3.663646648e-05 -3.659593757e-05 -3.663648832e-05 -3.668177978e-05 -3.663644495e-05 -3.659598086e-05 -3.663646648e-05 -3.659593757e-05);
    }
    outlet
    {
        type            calculated;
        value           nonuniform 0();
    }
    walls
    {
        type            calculated;
        value           uniform 0;
    }
    procBoundary0to1
    {
        type            processor;
        value           nonuniform List<scalar> 9(3.120081267e-05 3.162337433e-05 3.120081085e-05 3.157636603e-05 3.19984656e-05 3.157636751e-05 3.111081352e-05 3.153675456e-05 3.111081589e-05);
    }
}


// ************************************************************************* //
