/*--------------------------------*- C++ -*----------------------------------*\
  =========                 |
  \\      /  F ield         | OpenFOAM: The Open Source CFD Toolbox
   \\    /   O peration     | Website:  https://openfoam.org
    \\  /    A nd           | Version:  7
     \\/     M anipulation  |
\*---------------------------------------------------------------------------*/
FoamFile
{
    version     2.0;
    format      ascii;
    class       volVectorField::Internal;
    location    "0.07";
    object      steelCloud:UTrans;
}
// * * * * * * * * * * * * * * * * * * * * * * * * * * * * * * * * * * * * * //

dimensions      [1 1 -1 0 0 0 0];

value           nonuniform List<vector> 
27
(
(-6.369777469e-08 -2.079836845e-15 -2.921474592e-10)
(-6.381991423e-08 -2.083824902e-15 -2.927076476e-10)
(-6.369777469e-08 -2.079836845e-15 -2.921474592e-10)
(-6.381991423e-08 -2.083824902e-15 -2.927076476e-10)
(-6.395622393e-08 -2.088275637e-15 -2.933328269e-10)
(-6.381991423e-08 -2.083824902e-15 -2.927076476e-10)
(-6.369777469e-08 -2.079836845e-15 -2.921474592e-10)
(-6.381991423e-08 -2.083824902e-15 -2.927076476e-10)
(-6.369777469e-08 -2.079836845e-15 -2.921474592e-10)
(-5.910650847e-08 -1.929924471e-15 -2.710897885e-10)
(-5.923298576e-08 -1.934054162e-15 -2.716698719e-10)
(-5.910650847e-08 -1.929924471e-15 -2.710897885e-10)
(-5.923298576e-08 -1.934054162e-15 -2.716698719e-10)
(-5.937896615e-08 -1.938820661e-15 -2.723394054e-10)
(-5.923298576e-08 -1.934054162e-15 -2.716698719e-10)
(-5.910650847e-08 -1.929924471e-15 -2.710897885e-10)
(-5.923298576e-08 -1.934054162e-15 -2.716698719e-10)
(-5.910650847e-08 -1.929924471e-15 -2.710897885e-10)
(-5.053351244e-08 -1.650002086e-15 -2.317700631e-10)
(-5.062021362e-08 -1.652833022e-15 -2.321677149e-10)
(-5.053351244e-08 -1.650002086e-15 -2.317700631e-10)
(-5.062021362e-08 -1.652833022e-15 -2.321677149e-10)
(-5.071756595e-08 -1.656011735e-15 -2.326142177e-10)
(-5.062021362e-08 -1.652833022e-15 -2.321677149e-10)
(-5.053351244e-08 -1.650002086e-15 -2.317700631e-10)
(-5.062021362e-08 -1.652833022e-15 -2.321677149e-10)
(-5.053351244e-08 -1.650002086e-15 -2.317700631e-10)
)
;


// ************************************************************************* //
