/*--------------------------------*- C++ -*----------------------------------*\
  =========                 |
  \\      /  F ield         | OpenFOAM: The Open Source CFD Toolbox
   \\    /   O peration     | Website:  https://openfoam.org
    \\  /    A nd           | Version:  7
     \\/     M anipulation  |
\*---------------------------------------------------------------------------*/
FoamFile
{
    version     2.0;
    format      ascii;
    class       volScalarField;
    location    "0.07";
    object      T;
}
// * * * * * * * * * * * * * * * * * * * * * * * * * * * * * * * * * * * * * //

dimensions      [0 0 0 1 0 0 0];

internalField   nonuniform List<scalar> 
27
(
300.0178022
300.0216058
300.0178022
300.0216034
300.0258487
300.0216034
300.0177982
300.0216016
300.0177982
301.8999423
301.9012255
301.8999423
301.9003969
301.9029503
301.9003968
301.8983482
301.8996074
301.8983482
303.5120163
303.5041135
303.5120159
303.5032895
303.4973117
303.5032894
303.510589
303.5025905
303.5105888
)
;

boundaryField
{
    inlet
    {
        type            fixedValue;
        value           uniform 298;
    }
    outlet
    {
        type            zeroGradient;
    }
    walls
    {
        type            zeroGradient;
    }
    procBoundary0to1
    {
        type            processor;
        value           nonuniform List<scalar> 9(304.8060112 304.7832401 304.8060097 304.784392 304.7640214 304.7843907 304.8083877 304.7852931 304.8083863);
    }
}


// ************************************************************************* //
