/*--------------------------------*- C++ -*----------------------------------*\
  =========                 |
  \\      /  F ield         | OpenFOAM: The Open Source CFD Toolbox
   \\    /   O peration     | Website:  https://openfoam.org
    \\  /    A nd           | Version:  7
     \\/     M anipulation  |
\*---------------------------------------------------------------------------*/
FoamFile
{
    version     2.0;
    format      ascii;
    class       volScalarField;
    location    "0.07";
    object      Tavg;
}
// * * * * * * * * * * * * * * * * * * * * * * * * * * * * * * * * * * * * * //

dimensions      [0 0 0 1 0 0 0];

internalField   nonuniform List<scalar> 
27
(
302.868713
302.8687124
302.868713
302.8687302
302.8687295
302.8687302
302.8687486
302.8687479
302.8687486
303.1217842
303.1217815
303.1217842
303.1218136
303.1218109
303.1218136
303.1218483
303.1218456
303.1218483
303.5501803
303.5501734
303.5501803
303.5502366
303.5502298
303.5502366
303.5503064
303.5502995
303.5503064
)
;

boundaryField
{
    inlet
    {
        type            fixedValue;
        value           uniform 298;
    }
    outlet
    {
        type            zeroGradient;
    }
    walls
    {
        type            zeroGradient;
    }
    procBoundary0to1
    {
        type            processor;
        value           nonuniform List<scalar> 9(304.0318292 304.0318165 304.0318292 304.0319269 304.0319143 304.0319269 304.0320493 304.0320366 304.0320493);
    }
}


// ************************************************************************* //
