/*--------------------------------*- C++ -*----------------------------------*\
  =========                 |
  \\      /  F ield         | OpenFOAM: The Open Source CFD Toolbox
   \\    /   O peration     | Website:  https://openfoam.org
    \\  /    A nd           | Version:  7
     \\/     M anipulation  |
\*---------------------------------------------------------------------------*/
FoamFile
{
    version     2.0;
    format      ascii;
    class       volVectorField;
    location    "0.07";
    object      U;
}
// * * * * * * * * * * * * * * * * * * * * * * * * * * * * * * * * * * * * * //

dimensions      [0 1 -1 0 0 0 0];

internalField   nonuniform List<vector> 
27
(
(1.712744599 0.00165977421 -0.007630887071)
(1.71979123 2.321797423e-08 -0.007675424263)
(1.712744586 -0.001659749089 -0.007630858924)
(1.720184366 0.001636445815 0.003479950265)
(1.727395185 5.230629127e-08 0.003501023472)
(1.720184357 -0.001636392207 0.003479961194)
(1.713498693 0.001653794621 -0.01113190216)
(1.720562726 3.83234539e-08 -0.0111364327)
(1.713498672 -0.001653754699 -0.01113191947)
(1.802703283 0.002977682548 -0.01507973772)
(1.814595969 8.099198841e-08 -0.015135349)
(1.80270327 -0.00297754772 -0.0150797366)
(1.81515993 0.002956240467 0.008240308948)
(1.827064848 8.085640971e-08 0.008301149898)
(1.815159935 -0.002956103943 0.00824030621)
(1.803714724 0.002949050158 -0.02139673966)
(1.815659695 9.198269692e-08 -0.02143983796)
(1.803714672 -0.002948903273 -0.02139673569)
(1.779422852 0.004182088924 -0.02278614018)
(1.797979694 2.669172323e-09 -0.02283157515)
(1.779422921 -0.004181888048 -0.02278610496)
(1.797207813 0.004172018611 0.01332709479)
(1.815738552 4.483396694e-08 0.01346079152)
(1.79720778 -0.004171773556 0.01332704724)
(1.777813719 0.004113748995 -0.03173409839)
(1.796486414 -2.819366979e-08 -0.03183190257)
(1.777813765 -0.00411357916 -0.031734175)
)
;

boundaryField
{
    inlet
    {
        type            interstitialInletVelocity;
        inletVelocity   uniform (1.23 0 0);
        value           nonuniform List<vector> 9((1.939284562 0 0) (1.941431252 0 0) (1.939284562 0 0) (1.941431252 0 0) (1.943832612 0 0) (1.941431252 0 0) (1.939284562 0 0) (1.941431252 0 0) (1.939284562 0 0));
    }
    outlet
    {
        type            pressureInletOutletVelocity;
        phi             alphaRhoPhi;
        value           nonuniform 0();
    }
    walls
    {
        type            noSlip;
    }
    procBoundary0to1
    {
        type            processor;
        value           nonuniform List<vector> 9((1.657845381 0.005064358188 -0.03189828127) (1.684422205 -8.524676784e-08 -0.03192337645) (1.657845344 -0.00506397512 -0.03189830619) (1.679830893 0.00504744009 0.01699469417) (1.706429931 -9.859323081e-08 0.01725061589) (1.679830934 -0.005047069532 0.01699465958) (1.649260194 0.004934283708 -0.04275737123) (1.676089688 -8.950112367e-08 -0.04288558076) (1.649260283 -0.004933905064 -0.04275737228));
    }
}


// ************************************************************************* //
