/*--------------------------------*- C++ -*----------------------------------*\
  =========                 |
  \\      /  F ield         | OpenFOAM: The Open Source CFD Toolbox
   \\    /   O peration     | Website:  https://openfoam.org
    \\  /    A nd           | Version:  7
     \\/     M anipulation  |
\*---------------------------------------------------------------------------*/
FoamFile
{
    version     2.0;
    format      ascii;
    class       volScalarField;
    location    "0.05";
    object      cpavg;
}
// * * * * * * * * * * * * * * * * * * * * * * * * * * * * * * * * * * * * * //

dimensions      [0 2 -2 -1 0 0 0];

internalField   nonuniform List<scalar> 
54
(
1011.62082
1011.62082
1011.62082
1011.620822
1011.620822
1011.620822
1011.620824
1011.620824
1011.620824
1011.636034
1011.636034
1011.636034
1011.636037
1011.636037
1011.636037
1011.63604
1011.63604
1011.63604
1011.661888
1011.661888
1011.661888
1011.661893
1011.661893
1011.661893
1011.661899
1011.661899
1011.661899
1011.691124
1011.691123
1011.691124
1011.691133
1011.691132
1011.691133
1011.691143
1011.691142
1011.691143
1011.716049
1011.716047
1011.716049
1011.716061
1011.71606
1011.716061
1011.716076
1011.716075
1011.716076
1011.730324
1011.730322
1011.730324
1011.730339
1011.730337
1011.730339
1011.730358
1011.730356
1011.730358
)
;

boundaryField
{
    inlet
    {
        type            calculated;
        value           uniform 1011.338357;
    }
    outlet
    {
        type            calculated;
        value           nonuniform List<scalar> 9(1011.861011 1011.857784 1011.86406 1011.856112 1011.85309 1011.858935 1011.861016 1011.857785 1011.864063);
    }
    walls
    {
        type            calculated;
        value           nonuniform List<scalar> 
72
(
1011.453311
1011.56166
1011.655228
1011.731965
1011.797195
1011.861011
1011.45353
1011.561743
1011.654771
1011.730547
1011.794353
1011.856112
1011.453311
1011.56166
1011.655228
1011.731966
1011.797197
1011.861016
1011.45331
1011.56157
1011.655155
1011.732154
1011.798165
1011.86406
1011.45353
1011.561651
1011.654693
1011.730715
1011.795252
1011.858935
1011.45331
1011.56157
1011.655155
1011.732154
1011.798167
1011.864063
1011.453311
1011.45353
1011.45331
1011.56166
1011.561696
1011.56157
1011.655228
1011.654727
1011.655155
1011.731966
1011.730637
1011.732154
1011.797197
1011.79487
1011.798167
1011.861016
1011.857785
1011.864063
1011.453311
1011.45353
1011.45331
1011.56166
1011.561696
1011.56157
1011.655228
1011.654727
1011.655155
1011.731965
1011.730637
1011.732154
1011.797195
1011.794869
1011.798165
1011.861011
1011.857784
1011.86406
)
;
    }
}


// ************************************************************************* //
