/*--------------------------------*- C++ -*----------------------------------*\
  =========                 |
  \\      /  F ield         | OpenFOAM: The Open Source CFD Toolbox
   \\    /   O peration     | Website:  https://openfoam.org
    \\  /    A nd           | Version:  7
     \\/     M anipulation  |
\*---------------------------------------------------------------------------*/
FoamFile
{
    version     2.0;
    format      ascii;
    class       volScalarField;
    location    "0.05";
    object      kappaavg;
}
// * * * * * * * * * * * * * * * * * * * * * * * * * * * * * * * * * * * * * //

dimensions      [1 1 -3 -1 0 0 0];

internalField   nonuniform List<scalar> 
54
(
0.02726446268
0.02726446262
0.02726446268
0.02726446478
0.02726446472
0.02726446478
0.027264467
0.02726446694
0.02726446701
0.02728449739
0.02728449716
0.0272844974
0.02728450083
0.0272845006
0.02728450084
0.02728450474
0.02728450451
0.02728450475
0.02731849761
0.02731849701
0.02731849763
0.02731850395
0.02731850335
0.02731850396
0.02731851147
0.02731851087
0.02731851149
0.02735687573
0.0273568746
0.02735687576
0.02735688649
0.02735688536
0.02735688652
0.02735689949
0.02735689835
0.02735689952
0.0273895361
0.02738953437
0.02738953614
0.02738955189
0.02738955015
0.02738955192
0.02738957107
0.02738956931
0.02738957111
0.02740821792
0.02740821574
0.02740821796
0.02740823726
0.02740823508
0.02740823731
0.02740826085
0.02740825864
0.02740826089
)
;

boundaryField
{
    inlet
    {
        type            calculated;
        value           uniform 0.02688265352;
    }
    outlet
    {
        type            calculated;
        value           nonuniform List<scalar> 9(0.02757749014 0.02757340221 0.02758135139 0.02757128184 0.02756745002 0.02757486085 0.02757749608 0.0275734028 0.02758135559);
    }
    walls
    {
        type            calculated;
        value           nonuniform List<scalar> 
72
(
0.02704151382
0.02718796808
0.02731202184
0.02741216609
0.02749620614
0.02757749014
0.02704181378
0.02718807841
0.02731142074
0.02741032755
0.02749256426
0.02757128184
0.02704151382
0.02718796763
0.02731202162
0.02741216669
0.02749620925
0.02757749608
0.02704151353
0.02718784708
0.02731192655
0.02741241063
0.02749744906
0.02758135139
0.02704181347
0.02718795609
0.0273113185
0.02741054596
0.02749371717
0.02757486085
0.02704151353
0.02718784678
0.0273119263
0.02741241122
0.02749745118
0.02758135559
0.02704151382
0.0270418136
0.02704151353
0.02718796763
0.02718801538
0.02718784678
0.02731202162
0.0273113637
0.0273119263
0.02741216669
0.02741044472
0.02741241122
0.02749620925
0.02749322685
0.02749745118
0.02757749608
0.0275734028
0.02758135559
0.02704151382
0.0270418136
0.02704151353
0.02718796808
0.02718801543
0.02718784708
0.02731202184
0.02731136384
0.02731192655
0.02741216609
0.02741044449
0.02741241063
0.02749620614
0.02749322642
0.02749744906
0.02757749014
0.02757340221
0.02758135139
)
;
    }
}


// ************************************************************************* //
