/*--------------------------------*- C++ -*----------------------------------*\
  =========                 |
  \\      /  F ield         | OpenFOAM: The Open Source CFD Toolbox
   \\    /   O peration     | Website:  https://openfoam.org
    \\  /    A nd           | Version:  7
     \\/     M anipulation  |
\*---------------------------------------------------------------------------*/
FoamFile
{
    version     2.0;
    format      ascii;
    class       surfaceScalarField;
    location    "0.05";
    object      phi;
}
// * * * * * * * * * * * * * * * * * * * * * * * * * * * * * * * * * * * * * //

dimensions      [0 3 -1 0 0 0 0];

internalField   nonuniform List<scalar> 
117
(
3.569116527e-08
4.932272797e-08
3.061469612e-05
-3.568284076e-08
4.865790492e-08
3.075473568e-05
4.932256007e-08
3.06147034e-05
3.516803951e-08
-2.24647937e-08
3.076834792e-05
-3.516159117e-08
-2.192799408e-08
3.090977084e-05
-2.246507176e-08
3.076835086e-05
3.591756553e-08
3.064077167e-05
-3.59097703e-08
3.078134711e-05
3.064077647e-05
4.037452471e-08
2.670563873e-08
2.902931298e-05
-4.036888657e-08
2.6477566e-08
2.927302107e-05
2.670689313e-08
2.902932323e-05
4.033018315e-08
-5.468520088e-08
2.927316119e-05
-4.032162926e-08
-5.45820439e-08
2.951678891e-05
-5.468557486e-08
2.927316649e-05
4.068325995e-08
2.902669655e-05
-4.067662082e-08
2.927167816e-05
2.902670452e-05
5.126894502e-08
1.106583547e-08
2.700157213e-05
-5.127628637e-08
1.148761664e-08
2.736489358e-05
1.106721373e-08
2.700156502e-05
5.166904333e-08
-8.927455797e-08
2.732431474e-05
-5.166825535e-08
-8.926297352e-08
2.768735702e-05
-8.927697621e-08
2.732432383e-05
5.169973641e-08
2.69235932e-05
-5.170790726e-08
2.72897814e-05
2.69235937e-05
5.571329529e-08
-3.525572737e-08
2.527153883e-05
-5.574560786e-08
-3.40426484e-08
2.576432167e-05
-3.524668838e-08
2.527149314e-05
5.615971712e-08
-1.393108006e-07
2.563190933e-05
-5.616809824e-08
-1.386731916e-07
2.612626789e-05
-1.393146678e-07
2.563191796e-05
5.631312693e-08
2.50290418e-05
-5.633724427e-08
2.552806103e-05
2.502901046e-05
5.009716195e-08
-1.40869209e-07
2.428671018e-05
-5.01439015e-08
-1.380343845e-07
2.489882712e-05
-1.408598817e-07
2.428661023e-05
5.049740058e-08
-2.33240236e-07
2.457943705e-05
-5.05087317e-08
-2.310816971e-07
2.519720028e-05
-2.332456168e-07
2.457944615e-05
5.057803897e-08
2.368693659e-05
-5.061487979e-08
2.431136413e-05
2.368686734e-05
3.37758288e-08
-3.810400285e-07
-3.381290072e-08
-3.744447123e-07
-3.810372961e-07
3.355304506e-08
-4.510114494e-07
-3.35602878e-08
-4.449298921e-07
-4.510170272e-07
3.30059218e-08
-3.303600697e-08
)
;

boundaryField
{
    inlet
    {
        type            calculated;
        value           nonuniform List<scalar> 9(-3.102855299e-05 -3.106290004e-05 -3.102855299e-05 -3.106290004e-05 -3.11013218e-05 -3.106290004e-05 -3.102855299e-05 -3.106290004e-05 -3.102855299e-05);
    }
    outlet
    {
        type            calculated;
        value           nonuniform List<scalar> 9(2.42753887e-05 2.425188255e-05 2.285377165e-05 2.497179284e-05 2.496014516e-05 2.357268554e-05 2.42752504e-05 2.425189245e-05 2.285366629e-05);
    }
    walls
    {
        type            calculated;
        value           uniform 0;
    }
}


// ************************************************************************* //
