/*--------------------------------*- C++ -*----------------------------------*\
  =========                 |
  \\      /  F ield         | OpenFOAM: The Open Source CFD Toolbox
   \\    /   O peration     | Website:  https://openfoam.org
    \\  /    A nd           | Version:  7
     \\/     M anipulation  |
\*---------------------------------------------------------------------------*/
FoamFile
{
    version     2.0;
    format      ascii;
    class       volScalarField::Internal;
    location    "0.05";
    object      steelCloud:UCoeff;
}
// * * * * * * * * * * * * * * * * * * * * * * * * * * * * * * * * * * * * * //

dimensions      [1 0 0 0 0 0 0];

value           nonuniform List<scalar> 
54
(
3.49390413e-08
3.500603639e-08
3.49390413e-08
3.500603639e-08
3.5080804e-08
3.500603639e-08
3.49390413e-08
3.500603639e-08
3.49390413e-08
3.242067326e-08
3.249004766e-08
3.242067326e-08
3.249004766e-08
3.257011976e-08
3.249004766e-08
3.242067326e-08
3.249004766e-08
3.242067326e-08
2.771827566e-08
2.776583237e-08
2.771827566e-08
2.776583237e-08
2.781923136e-08
2.776583237e-08
2.771827566e-08
2.776583237e-08
2.771827566e-08
2.222573036e-08
2.224989086e-08
2.222573036e-08
2.224989086e-08
2.227615848e-08
2.224989086e-08
2.222573036e-08
2.224989086e-08
2.222573036e-08
1.759504997e-08
1.760534217e-08
1.759504997e-08
1.760534217e-08
1.761623881e-08
1.760534218e-08
1.759504997e-08
1.760534218e-08
1.759504997e-08
1.500496473e-08
1.500968684e-08
1.500496473e-08
1.500968684e-08
1.501458584e-08
1.500968684e-08
1.500496473e-08
1.500968684e-08
1.500496473e-08
)
;


// ************************************************************************* //
