/*--------------------------------*- C++ -*----------------------------------*\
  =========                 |
  \\      /  F ield         | OpenFOAM: The Open Source CFD Toolbox
   \\    /   O peration     | Website:  https://openfoam.org
    \\  /    A nd           | Version:  7
     \\/     M anipulation  |
\*---------------------------------------------------------------------------*/
FoamFile
{
    version     2.0;
    format      ascii;
    class       volVectorField;
    location    "0.05";
    object      Uavg;
}
// * * * * * * * * * * * * * * * * * * * * * * * * * * * * * * * * * * * * * //

dimensions      [0 1 -1 0 0 0 0];

internalField   nonuniform List<vector> 
54
(
(1.247276231 5.103575819e-05 -0.01018544922)
(1.247280373 2.91861958e-07 -0.01018545447)
(1.247276232 -5.045117983e-05 -0.01018544948)
(1.247242978 5.100246352e-05 -0.01023165037)
(1.247247125 2.92035749e-07 -0.01023165278)
(1.24724298 -5.04175341e-05 -0.01023165079)
(1.247201433 5.097272382e-05 -0.01029468201)
(1.24720558 2.921941673e-07 -0.01029468397)
(1.247201435 -5.038747642e-05 -0.01029468258)
(1.219586991 5.353091828e-05 -0.01121343668)
(1.219591452 2.630453828e-07 -0.01121343709)
(1.219586983 -5.300369217e-05 -0.01121343668)
(1.219524699 5.348182028e-05 -0.01126207923)
(1.219529163 2.635512102e-07 -0.01126207763)
(1.219524691 -5.295358246e-05 -0.01126207962)
(1.219453511 5.343441096e-05 -0.01132891054)
(1.219457979 2.639705486e-07 -0.01132890973)
(1.219453503 -5.290533269e-05 -0.01132891133)
(1.182685207 5.96587961e-05 -0.01316353054)
(1.1826908 2.15362974e-07 -0.01316351773)
(1.182685177 -5.922627086e-05 -0.01316353004)
(1.182560717 5.95711234e-05 -0.01321782869)
(1.182566318 2.165738768e-07 -0.01321781542)
(1.182560688 -5.913618348e-05 -0.01321782905)
(1.182425187 5.948137771e-05 -0.0132939785)
(1.182430797 2.175492759e-07 -0.01329396863)
(1.182425159 -5.904448675e-05 -0.01329397973)
(1.159952236 7.118465011e-05 -0.01571393012)
(1.159961254 1.656517152e-07 -0.01571389174)
(1.159952175 -7.0850052e-05 -0.01571392885)
(1.159734456 7.102747479e-05 -0.01577620431)
(1.159743495 1.679395056e-07 -0.01577616608)
(1.159734397 -7.068833704e-05 -0.01577620464)
(1.159499051 7.086162658e-05 -0.01587178181)
(1.159508113 1.696858638e-07 -0.01587175366)
(1.159498993 -7.051900093e-05 -0.01587178382)
(1.157907872 8.471196117e-05 -0.01819134458)
(1.157921461 1.301582566e-07 -0.01819127376)
(1.15790778 -8.44466273e-05 -0.01819134304)
(1.157586276 8.447218628e-05 -0.0182619882)
(1.157599907 1.333541295e-07 -0.01826191665)
(1.157586187 -8.420051638e-05 -0.01826198892)
(1.157238224 8.421708716e-05 -0.01838119517)
(1.157251898 1.357209332e-07 -0.0183811418)
(1.157238137 -8.394068729e-05 -0.0183811983)
(1.163536614 9.338358216e-05 -0.0197360519)
(1.163553239 1.139229096e-07 -0.01973595572)
(1.163536501 -9.314969852e-05 -0.01973605053)
(1.163141676 9.308690909e-05 -0.01981231034)
(1.163158362 1.175712245e-07 -0.01981221193)
(1.163141568 -9.284578962e-05 -0.01981231157)
(1.162714419 9.277129317e-05 -0.01994666636)
(1.162731165 1.202532029e-07 -0.01994659133)
(1.162714313 -9.252481152e-05 -0.01994667035)
)
;

boundaryField
{
    inlet
    {
        type            interstitialInletVelocity;
        inletVelocity   uniform (1.23 0 0);
        value           uniform (1.23 0 0);
    }
    outlet
    {
        type            pressureInletOutletVelocity;
        phi             alphaRhoPhi;
        value           nonuniform List<vector> 9((1.50577419 0.005015048424 -0.05959414049) (1.511518525 0.00491087282 0.005678015319) (1.433763896 0.004651144679 -0.0710506137) (1.548544498 -5.166665929e-06 -0.05949156761) (1.554955042 -3.425185368e-06 0.006513825591) (1.477795851 -4.759916672e-06 -0.07110267148) (1.505760039 -0.005010018815 -0.05959357015) (1.51151973 -0.004904069405 0.00567821315) (1.433753604 -0.00464569276 -0.07105225322));
    }
    walls
    {
        type            noSlip;
    }
}


// ************************************************************************* //
