/*--------------------------------*- C++ -*----------------------------------*\
  =========                 |
  \\      /  F ield         | OpenFOAM: The Open Source CFD Toolbox
   \\    /   O peration     | Website:  https://openfoam.org
    \\  /    A nd           | Version:  7
     \\/     M anipulation  |
\*---------------------------------------------------------------------------*/
FoamFile
{
    version     2.0;
    format      ascii;
    class       surfaceScalarField;
    location    "0.095";
    object      alphaRhoPhi;
}
// * * * * * * * * * * * * * * * * * * * * * * * * * * * * * * * * * * * * * //

dimensions      [1 0 -1 0 0 0 0];

internalField   nonuniform List<scalar> 
117
(
2.656227585e-08
3.667746664e-08
2.314792044e-05
-2.656186207e-08
3.614425328e-08
2.322814225e-05
3.667804076e-08
2.314791971e-05
2.61469449e-08
-1.674715874e-08
2.323842665e-05
-2.614573541e-08
-1.633017968e-08
2.331590963e-05
-1.674745369e-08
2.323842663e-05
2.673251566e-08
2.316765306e-05
-2.673170951e-08
2.324826755e-05
2.316765221e-05
3.113652774e-08
2.061996578e-08
2.309615508e-05
-3.113498468e-08
2.042323289e-08
2.326997965e-05
2.062044351e-08
2.309615538e-05
3.106782289e-08
-4.211683366e-08
2.327008527e-05
-3.106600738e-08
-4.198783734e-08
2.34404466e-05
-4.211710013e-08
2.327008373e-05
3.137627312e-08
2.309415191e-05
-3.137439259e-08
2.326901625e-05
2.309415084e-05
4.230714104e-08
9.324076624e-09
2.304450784e-05
-4.230627959e-08
9.671063418e-09
2.334490704e-05
9.323538619e-09
2.304450476e-05
4.260355676e-08
-7.341280056e-08
2.331020465e-05
-4.260199783e-08
-7.334348238e-08
2.360864249e-05
-7.341327259e-08
2.331020441e-05
4.266527717e-08
2.29780538e-05
-4.266522146e-08
2.328098937e-05
2.297805409e-05
4.954446697e-08
-3.071837901e-08
2.302566246e-05
-4.954297352e-08
-2.960933275e-08
2.347357761e-05
-3.071850583e-08
2.302566237e-05
4.991025776e-08
-1.231035661e-07
2.335265402e-05
-4.990968924e-08
-1.224731315e-07
2.380131041e-05
-1.23103878e-07
2.335265187e-05
5.006925696e-08
2.2804864e-05
-5.006772804e-08
2.325862532e-05
2.280486183e-05
4.725747177e-08
-1.315458703e-07
2.310992769e-05
-4.725877886e-08
-1.287869019e-07
2.369686003e-05
-1.315449729e-07
2.310992533e-05
4.76021384e-08
-2.183587447e-07
2.339184404e-05
-4.760051482e-08
-2.162110459e-07
2.39839129e-05
-2.183583676e-07
2.339184256e-05
4.768085237e-08
2.253880107e-05
-4.768039584e-08
2.313775328e-05
2.253880035e-05
3.300835228e-08
-3.677664832e-07
-3.300766628e-08
-3.611292342e-07
-3.677673107e-07
3.271904996e-08
-4.35804908e-07
-3.271889531e-08
-4.296246177e-07
-4.358050637e-07
3.213275994e-08
-3.213248255e-08
)
;

boundaryField
{
    inlet
    {
        type            calculated;
        value           nonuniform List<scalar> 9(-2.321116494e-05 -2.321114955e-05 -2.321113748e-05 -2.321116339e-05 -2.321114802e-05 -2.321113591e-05 -2.321116494e-05 -2.321114955e-05 -2.321113748e-05);
    }
    outlet
    {
        type            calculated;
        value           nonuniform List<scalar> 9(2.344466503e-05 2.342714219e-05 2.207084347e-05 2.4123984e-05 2.411782562e-05 2.277237251e-05 2.34446649e-05 2.342714006e-05 2.207084182e-05);
    }
    walls
    {
        type            calculated;
        value           uniform 0;
    }
}


// ************************************************************************* //
