/*--------------------------------*- C++ -*----------------------------------*\
  =========                 |
  \\      /  F ield         | OpenFOAM: The Open Source CFD Toolbox
   \\    /   O peration     | Website:  https://openfoam.org
    \\  /    A nd           | Version:  7
     \\/     M anipulation  |
\*---------------------------------------------------------------------------*/
FoamFile
{
    version     2.0;
    format      ascii;
    class       volScalarField;
    location    "0.095";
    object      cpavg;
}
// * * * * * * * * * * * * * * * * * * * * * * * * * * * * * * * * * * * * * //

dimensions      [0 2 -2 -1 0 0 0];

internalField   nonuniform List<scalar> 
54
(
1011.623294
1011.623294
1011.623294
1011.623295
1011.623295
1011.623295
1011.623296
1011.623296
1011.623296
1011.638483
1011.638483
1011.638483
1011.638485
1011.638485
1011.638485
1011.638487
1011.638487
1011.638487
1011.66423
1011.66423
1011.66423
1011.664234
1011.664233
1011.664234
1011.664238
1011.664238
1011.664238
1011.69323
1011.69323
1011.69323
1011.693236
1011.693236
1011.693236
1011.693244
1011.693243
1011.693244
1011.717838
1011.717837
1011.717838
1011.717847
1011.717846
1011.717847
1011.717858
1011.717857
1011.717858
1011.731876
1011.731875
1011.731876
1011.731887
1011.731886
1011.731887
1011.731901
1011.731899
1011.731901
)
;

boundaryField
{
    inlet
    {
        type            calculated;
        value           uniform 1011.338357;
    }
    outlet
    {
        type            calculated;
        value           nonuniform List<scalar> 9(1011.854776 1011.852187 1011.856946 1011.850971 1011.848556 1011.852987 1011.854775 1011.852187 1011.856946);
    }
    walls
    {
        type            calculated;
        value           nonuniform List<scalar> 
72
(
1011.454013
1011.564112
1011.660147
1011.738454
1011.801201
1011.854776
1011.454233
1011.564187
1011.65967
1011.737062
1011.798669
1011.850971
1011.454013
1011.564112
1011.660147
1011.738454
1011.801201
1011.854775
1011.454013
1011.564018
1011.660061
1011.738599
1011.801972
1011.856946
1011.454233
1011.564092
1011.659579
1011.737187
1011.799381
1011.852987
1011.454013
1011.564018
1011.660061
1011.738598
1011.801972
1011.856946
1011.454013
1011.454233
1011.454013
1011.564112
1011.564138
1011.564018
1011.660147
1011.659621
1011.660061
1011.738454
1011.737133
1011.738598
1011.801201
1011.799089
1011.801972
1011.854775
1011.852187
1011.856946
1011.454013
1011.454233
1011.454013
1011.564112
1011.564138
1011.564018
1011.660147
1011.659621
1011.660061
1011.738454
1011.737133
1011.738599
1011.801201
1011.799089
1011.801972
1011.854776
1011.852187
1011.856946
)
;
    }
}


// ************************************************************************* //
