/*--------------------------------*- C++ -*----------------------------------*\
  =========                 |
  \\      /  F ield         | OpenFOAM: The Open Source CFD Toolbox
   \\    /   O peration     | Website:  https://openfoam.org
    \\  /    A nd           | Version:  7
     \\/     M anipulation  |
\*---------------------------------------------------------------------------*/
FoamFile
{
    version     2.0;
    format      ascii;
    class       volScalarField;
    location    "0.095";
    object      kappaavg;
}
// * * * * * * * * * * * * * * * * * * * * * * * * * * * * * * * * * * * * * //

dimensions      [1 1 -3 -1 0 0 0];

internalField   nonuniform List<scalar> 
54
(
0.02726772775
0.0272677277
0.02726772775
0.02726772908
0.02726772903
0.02726772908
0.02726773051
0.02726773046
0.02726773051
0.0272877295
0.02728772928
0.0272877295
0.02728773178
0.02728773156
0.02728773178
0.02728773448
0.02728773427
0.02728773448
0.02732158933
0.02732158879
0.02732158933
0.02732159371
0.02732159317
0.02732159371
0.02732159915
0.0273215986
0.02732159915
0.02735966017
0.02735965917
0.02735966017
0.02735966777
0.02735966677
0.02735966777
0.02735967732
0.02735967632
0.02735967732
0.02739191043
0.02739190896
0.02739191043
0.0273919217
0.02739192023
0.0273919217
0.02739193583
0.02739193434
0.02739193583
0.02741028504
0.02741028324
0.02741028504
0.0274102989
0.0274102971
0.0274102989
0.02741031622
0.0274103144
0.02741031622
)
;

boundaryField
{
    inlet
    {
        type            calculated;
        value           uniform 0.02688265352;
    }
    outlet
    {
        type            calculated;
        value           nonuniform List<scalar> 9(0.02756958799 0.0275663052 0.02757233966 0.02756476276 0.02756169672 0.02756731991 0.02756958783 0.02756630503 0.02757233949);
    }
    walls
    {
        type            calculated;
        value           nonuniform List<scalar> 
72
(
0.02704247299
0.02719124662
0.02731848334
0.02742056998
0.02750133518
0.02756958799
0.02704277394
0.02719134746
0.02731785773
0.02741876855
0.02749809345
0.02756476276
0.02704247299
0.02719124662
0.02731848334
0.02742056993
0.02750133506
0.02756958783
0.02704247268
0.0271911207
0.02731837068
0.02742075721
0.02750232249
0.02757233966
0.02704277361
0.02719121963
0.02731773746
0.02741893012
0.02749900588
0.02756731991
0.02704247268
0.0271911207
0.02731837068
0.02742075716
0.02750232237
0.02757233949
0.02704247299
0.02704277375
0.02704247268
0.02719124662
0.027191282
0.0271911207
0.02731848334
0.02731779276
0.02731837068
0.02742056993
0.02741885948
0.02742075716
0.02750133506
0.02749863148
0.02750232237
0.02756958783
0.02756630503
0.02757233949
0.02704247299
0.02704277375
0.02704247268
0.02719124662
0.027191282
0.0271911207
0.02731848334
0.02731779275
0.02731837068
0.02742056998
0.02741885953
0.02742075721
0.02750133518
0.02749863159
0.02750232249
0.02756958799
0.0275663052
0.02757233966
)
;
    }
}


// ************************************************************************* //
