/*--------------------------------*- C++ -*----------------------------------*\
  =========                 |
  \\      /  F ield         | OpenFOAM: The Open Source CFD Toolbox
   \\    /   O peration     | Website:  https://openfoam.org
    \\  /    A nd           | Version:  7
     \\/     M anipulation  |
\*---------------------------------------------------------------------------*/
FoamFile
{
    version     2.0;
    format      ascii;
    class       surfaceScalarField;
    location    "0.095";
    object      phi;
}
// * * * * * * * * * * * * * * * * * * * * * * * * * * * * * * * * * * * * * //

dimensions      [0 3 -1 0 0 0 0];

internalField   nonuniform List<scalar> 
117
(
3.576858755e-08
4.938965207e-08
3.061475212e-05
-3.576803036e-08
4.872932428e-08
3.075501858e-05
4.939042518e-08
3.061475116e-05
3.525106252e-08
-2.255163464e-08
3.076861198e-05
-3.524943189e-08
-2.201619939e-08
3.091028813e-05
-2.255203182e-08
3.076861196e-05
3.599787347e-08
3.064080587e-05
-3.599678792e-08
3.078161989e-05
3.064080475e-05
4.050775342e-08
2.682597132e-08
2.902943824e-05
-4.050574595e-08
2.660171226e-08
2.927374579e-05
2.682659284e-08
2.902943861e-05
4.046648293e-08
-5.479265536e-08
2.927381663e-05
-4.046411819e-08
-5.468997304e-08
2.951808706e-05
-5.479300204e-08
2.92738147e-05
4.081948815e-08
2.902681062e-05
-4.081704165e-08
2.92724173e-05
2.902680929e-05
5.148653966e-08
1.134711358e-08
2.700123966e-05
-5.148549129e-08
1.177788657e-08
2.73657441e-05
1.134645885e-08
2.700123603e-05
5.188460754e-08
-8.934095668e-08
2.732509514e-05
-5.1882709e-08
-8.932105266e-08
2.76893746e-05
-8.934153116e-08
2.732509485e-05
5.192219045e-08
2.692344789e-05
-5.192212267e-08
2.729087205e-05
2.692344821e-05
5.600283877e-08
-3.472275058e-08
2.526945639e-05
-5.60011506e-08
-3.347827087e-08
2.576418915e-05
-3.472289388e-08
2.526945622e-05
5.643196276e-08
-1.391516611e-07
2.563181355e-05
-5.64313199e-08
-1.384767697e-07
2.612816234e-05
-1.391520135e-07
2.563181112e-05
5.659651199e-08
2.502777777e-05
-5.659478371e-08
2.552885695e-05
2.502777532e-05
5.040648635e-08
-1.403130676e-07
2.42813661e-05
-5.040788044e-08
-1.373710106e-07
2.489624109e-05
-1.403121098e-07
2.428136351e-05
5.077557131e-08
-2.329166872e-07
2.457685714e-05
-5.077383938e-08
-2.306267696e-07
2.519744014e-05
-2.32916284e-07
2.457685547e-05
5.086013501e-08
2.368314386e-05
-5.085964795e-08
2.431060436e-05
2.368314298e-05
3.416981076e-08
-3.807192511e-07
-3.416910052e-08
-3.737974112e-07
-3.807201056e-07
3.386790148e-08
-4.511798804e-07
-3.38677413e-08
-4.447192928e-07
-4.51180039e-07
3.326709269e-08
-3.326680541e-08
)
;

boundaryField
{
    inlet
    {
        type            calculated;
        value           nonuniform List<scalar> 9(-3.102855299e-05 -3.106290004e-05 -3.102855299e-05 -3.106290004e-05 -3.11013218e-05 -3.106290004e-05 -3.102855299e-05 -3.106290004e-05 -3.102855299e-05);
    }
    outlet
    {
        type            calculated;
        value           nonuniform List<scalar> 9(2.427137236e-05 2.42513507e-05 2.28517147e-05 2.497111087e-05 2.496307906e-05 2.35745371e-05 2.427137209e-05 2.425134836e-05 2.285171285e-05);
    }
    walls
    {
        type            calculated;
        value           uniform 0;
    }
}


// ************************************************************************* //
