/*--------------------------------*- C++ -*----------------------------------*\
  =========                 |
  \\      /  F ield         | OpenFOAM: The Open Source CFD Toolbox
   \\    /   O peration     | Website:  https://openfoam.org
    \\  /    A nd           | Version:  7
     \\/     M anipulation  |
\*---------------------------------------------------------------------------*/
FoamFile
{
    version     2.0;
    format      ascii;
    class       volScalarField::Internal;
    location    "0.095";
    object      steelCloud:hsCoeff;
}
// * * * * * * * * * * * * * * * * * * * * * * * * * * * * * * * * * * * * * //

dimensions      [1 2 -2 -1 0 0 0];

value           nonuniform List<scalar> 
54
(
6.813135571e-06
6.826199657e-06
6.81313557e-06
6.826199657e-06
6.840779389e-06
6.826199657e-06
6.81313557e-06
6.826199657e-06
6.813135571e-06
6.32205218e-06
6.335580234e-06
6.32205218e-06
6.335580234e-06
6.351194345e-06
6.335580233e-06
6.32205218e-06
6.335580233e-06
6.32205218e-06
5.405081618e-06
5.414355206e-06
5.405081618e-06
5.414355206e-06
5.424768044e-06
5.414355206e-06
5.405081618e-06
5.414355206e-06
5.405081619e-06
4.334031744e-06
4.338743058e-06
4.334031744e-06
4.338743058e-06
4.34386526e-06
4.338743058e-06
4.334031744e-06
4.338743058e-06
4.334031744e-06
3.431046084e-06
3.433053071e-06
3.431046084e-06
3.433053071e-06
3.435177922e-06
3.433053071e-06
3.431046084e-06
3.433053071e-06
3.431046084e-06
2.925977792e-06
2.926898607e-06
2.925977792e-06
2.926898607e-06
2.927853916e-06
2.926898607e-06
2.925977792e-06
2.926898607e-06
2.925977792e-06
)
;


// ************************************************************************* //
