/*--------------------------------*- C++ -*----------------------------------*\
  =========                 |
  \\      /  F ield         | OpenFOAM: The Open Source CFD Toolbox
   \\    /   O peration     | Website:  https://openfoam.org
    \\  /    A nd           | Version:  7
     \\/     M anipulation  |
\*---------------------------------------------------------------------------*/
FoamFile
{
    version     2.0;
    format      ascii;
    class       volScalarField::Internal;
    location    "0.095";
    object      steelCloud:hsTrans;
}
// * * * * * * * * * * * * * * * * * * * * * * * * * * * * * * * * * * * * * //

dimensions      [1 2 -2 0 0 0 0];

value           nonuniform List<scalar> 
54
(
0.0002373682253
0.0002378233753
0.0002373682253
0.0002378233753
0.0002383313301
0.0002378233753
0.0002373682253
0.0002378233753
0.0002373682253
0.0002202589821
0.0002207302967
0.0002202589821
0.0002207302967
0.0002212742891
0.0002207302967
0.0002202589821
0.0002207302967
0.0002202589821
0.0001883119186
0.0001886350085
0.0001883119186
0.0001886350085
0.0001889977896
0.0001886350085
0.0001883119186
0.0001886350085
0.0001883119186
0.0001509967639
0.0001511609051
0.0001509967639
0.0001511609051
0.0001513393616
0.0001511609051
0.0001509967639
0.0001511609051
0.0001509967639
0.0001195369315
0.0001196068545
0.0001195369315
0.0001196068545
0.0001196808838
0.0001196068545
0.0001195369315
0.0001196068545
0.0001195369315
0.0001019404573
0.0001019725383
0.0001019404573
0.0001019725383
0.0001020058211
0.0001019725383
0.0001019404573
0.0001019725383
0.0001019404573
)
;


// ************************************************************************* //
