/*--------------------------------*- C++ -*----------------------------------*\
  =========                 |
  \\      /  F ield         | OpenFOAM: The Open Source CFD Toolbox
   \\    /   O peration     | Website:  https://openfoam.org
    \\  /    A nd           | Version:  7
     \\/     M anipulation  |
\*---------------------------------------------------------------------------*/
FoamFile
{
    version     2.0;
    format      ascii;
    class       volVectorField::Internal;
    location    "0.095";
    object      steelCloud:UTrans;
}
// * * * * * * * * * * * * * * * * * * * * * * * * * * * * * * * * * * * * * //

dimensions      [1 1 -1 0 0 0 0];

value           nonuniform List<vector> 
54
(
(-6.361971162e-08 -3.497954706e-15 -2.91854927e-10)
(-6.374170148e-08 -3.504661982e-15 -2.924145545e-10)
(-6.361971162e-08 -3.497954706e-15 -2.91854927e-10)
(-6.374170148e-08 -3.504661982e-15 -2.924145545e-10)
(-6.387784412e-08 -3.512147411e-15 -2.930391078e-10)
(-6.374170147e-08 -3.504661982e-15 -2.924145545e-10)
(-6.361971162e-08 -3.497954706e-15 -2.91854927e-10)
(-6.374170147e-08 -3.504661982e-15 -2.924145545e-10)
(-6.361971162e-08 -3.497954706e-15 -2.91854927e-10)
(-5.903407211e-08 -3.245825941e-15 -2.708183417e-10)
(-5.916039439e-08 -3.252771424e-15 -2.713978442e-10)
(-5.903407211e-08 -3.245825941e-15 -2.708183417e-10)
(-5.916039439e-08 -3.252771424e-15 -2.713978442e-10)
(-5.930619588e-08 -3.260787917e-15 -2.720667074e-10)
(-5.916039439e-08 -3.252771424e-15 -2.713978442e-10)
(-5.903407211e-08 -3.245825941e-15 -2.708183417e-10)
(-5.916039439e-08 -3.252771424e-15 -2.713978442e-10)
(-5.903407211e-08 -3.245825941e-15 -2.708183417e-10)
(-5.047158247e-08 -2.77504102e-15 -2.315379879e-10)
(-5.05581774e-08 -2.779802203e-15 -2.319352414e-10)
(-5.047158247e-08 -2.77504102e-15 -2.315379879e-10)
(-5.05581774e-08 -2.779802203e-15 -2.319352414e-10)
(-5.065541043e-08 -2.785148294e-15 -2.323812971e-10)
(-5.05581774e-08 -2.779802204e-15 -2.319352414e-10)
(-5.047158247e-08 -2.77504102e-15 -2.315379879e-10)
(-5.05581774e-08 -2.779802204e-15 -2.319352414e-10)
(-5.047158248e-08 -2.77504102e-15 -2.315379879e-10)
(-4.047033071e-08 -2.225149724e-15 -1.85657324e-10)
(-4.051432402e-08 -2.227568575e-15 -1.85859143e-10)
(-4.047033071e-08 -2.225149724e-15 -1.85657324e-10)
(-4.051432402e-08 -2.227568575e-15 -1.85859143e-10)
(-4.056215413e-08 -2.230198382e-15 -1.860785632e-10)
(-4.051432402e-08 -2.227568575e-15 -1.85859143e-10)
(-4.047033071e-08 -2.225149724e-15 -1.85657324e-10)
(-4.051432402e-08 -2.227568575e-15 -1.85859143e-10)
(-4.047033071e-08 -2.225149724e-15 -1.85657324e-10)
(-3.203842932e-08 -1.761544838e-15 -1.469760427e-10)
(-3.205717016e-08 -1.762575252e-15 -1.470620161e-10)
(-3.203842932e-08 -1.761544838e-15 -1.469760427e-10)
(-3.205717016e-08 -1.762575252e-15 -1.470620161e-10)
(-3.207701161e-08 -1.763666179e-15 -1.471530386e-10)
(-3.205717016e-08 -1.762575252e-15 -1.470620161e-10)
(-3.203842932e-08 -1.761544838e-15 -1.469760427e-10)
(-3.205717016e-08 -1.762575252e-15 -1.470620161e-10)
(-3.203842932e-08 -1.761544838e-15 -1.469760427e-10)
(-2.732220156e-08 -1.502236038e-15 -1.253403849e-10)
(-2.733079995e-08 -1.502708797e-15 -1.253798299e-10)
(-2.732220156e-08 -1.502236038e-15 -1.253403849e-10)
(-2.733079995e-08 -1.502708797e-15 -1.253798299e-10)
(-2.733972044e-08 -1.503199265e-15 -1.254207526e-10)
(-2.733079995e-08 -1.502708797e-15 -1.253798299e-10)
(-2.732220156e-08 -1.502236038e-15 -1.253403849e-10)
(-2.733079995e-08 -1.502708797e-15 -1.253798299e-10)
(-2.732220157e-08 -1.502236038e-15 -1.253403849e-10)
)
;


// ************************************************************************* //
