/*--------------------------------*- C++ -*----------------------------------*\
  =========                 |
  \\      /  F ield         | OpenFOAM: The Open Source CFD Toolbox
   \\    /   O peration     | Website:  https://openfoam.org
    \\  /    A nd           | Version:  7
     \\/     M anipulation  |
\*---------------------------------------------------------------------------*/
FoamFile
{
    version     2.0;
    format      ascii;
    class       volScalarField;
    location    "0.095";
    object      T;
}
// * * * * * * * * * * * * * * * * * * * * * * * * * * * * * * * * * * * * * //

dimensions      [0 0 0 1 0 0 0];

internalField   nonuniform List<scalar> 
54
(
300.0165756
300.0203769
300.0165756
300.0203746
300.0246172
300.0203746
300.0165717
300.0203728
300.0165717
301.8975644
301.89884
301.8975645
301.8980115
301.9005562
301.8980115
301.8959707
301.8972221
301.8959708
303.5091374
303.5012052
303.5091374
303.5003813
303.4943725
303.5003814
303.5077088
303.4996802
303.5077089
304.8040858
304.7812156
304.8040854
304.7823702
304.7619007
304.7823697
304.8064619
304.7832657
304.8064614
305.8298341
305.7886321
305.8298329
305.7954704
305.7570283
305.7954692
305.8423801
305.8002257
305.8423789
306.6976088
306.636219
306.697607
306.6558391
306.5972088
306.6558373
306.732611
306.6687439
306.7326091
)
;

boundaryField
{
    inlet
    {
        type            fixedValue;
        value           uniform 298;
    }
    outlet
    {
        type            zeroGradient;
    }
    walls
    {
        type            zeroGradient;
    }
}


// ************************************************************************* //
