/*--------------------------------*- C++ -*----------------------------------*\
  =========                 |
  \\      /  F ield         | OpenFOAM: The Open Source CFD Toolbox
   \\    /   O peration     | Website:  https://openfoam.org
    \\  /    A nd           | Version:  7
     \\/     M anipulation  |
\*---------------------------------------------------------------------------*/
FoamFile
{
    version     2.0;
    format      ascii;
    class       volVectorField;
    location    "0.095";
    object      Uavg;
}
// * * * * * * * * * * * * * * * * * * * * * * * * * * * * * * * * * * * * * //

dimensions      [0 1 -1 0 0 0 0];

internalField   nonuniform List<vector> 
54
(
(1.247451631 5.110658097e-05 -0.01021395283)
(1.247455785 1.906613884e-08 -0.01021395747)
(1.24745163 -5.106848749e-05 -0.01021395267)
(1.247418547 5.107278804e-05 -0.01026045597)
(1.247422705 1.918503925e-08 -0.01026045777)
(1.247418546 -5.103445814e-05 -0.01026045587)
(1.247377148 5.104243522e-05 -0.01032382921)
(1.247381307 1.928825336e-08 -0.01032383058)
(1.247377148 -5.100389933e-05 -0.01032382917)
(1.219732296 5.368177276e-05 -0.01124714013)
(1.219736777 1.840886886e-08 -0.01124713959)
(1.219732296 -5.364499001e-05 -0.01124713998)
(1.219670291 5.363088705e-05 -0.01129610676)
(1.219674777 1.85317356e-08 -0.01129610409)
(1.21967029 -5.35938598e-05 -0.01129610667)
(1.219599364 5.358167454e-05 -0.01136333442)
(1.219603852 1.86388626e-08 -0.01136333239)
(1.219599363 -5.354443332e-05 -0.01136333439)
(1.182779901 5.997185994e-05 -0.01320708728)
(1.182785536 1.732665699e-08 -0.01320707233)
(1.1827799 -5.993722905e-05 -0.01320708713)
(1.182655951 5.98793261e-05 -0.01326174969)
(1.182661596 1.746453383e-08 -0.01326173387)
(1.18265595 -5.984442077e-05 -0.01326174959)
(1.18252092 5.978493202e-05 -0.01333843247)
(1.182526573 1.758712412e-08 -0.01333841958)
(1.182520919 -5.974978172e-05 -0.01333843243)
(1.159990882 7.173729444e-05 -0.01577036803)
(1.159999984 1.628312654e-08 -0.01577032476)
(1.15999088 -7.170473628e-05 -0.01577036788)
(1.159774015 7.15699124e-05 -0.01583305763)
(1.159783139 1.644793783e-08 -0.01583301366)
(1.159774013 -7.153702613e-05 -0.01583305752)
(1.159539445 7.139451452e-05 -0.01592942987)
(1.159548592 1.660289821e-08 -0.01592939487)
(1.159539443 -7.136131957e-05 -0.01592942981)
(1.15790033 8.552281374e-05 -0.0182604318)
(1.157914053 1.557336182e-08 -0.01826035191)
(1.157900329 -8.549166083e-05 -0.01826043165)
(1.15758002 8.526655001e-05 -0.01833155745)
(1.157593785 1.576504391e-08 -0.01833147554)
(1.157580018 -8.523501616e-05 -0.01833155735)
(1.157233132 8.499605616e-05 -0.0184518969)
(1.157246941 1.594306375e-08 -0.01845183136)
(1.157233131 -8.496416762e-05 -0.01845189686)
(1.163503591 9.436735458e-05 -0.01981317016)
(1.163520383 1.526209416e-08 -0.01981306135)
(1.163503589 -9.433681365e-05 -0.01981317004)
(1.163110162 9.404958287e-05 -0.01988996492)
(1.163127015 1.545597719e-08 -0.0198898523)
(1.16311016 -9.401865583e-05 -0.01988996485)
(1.162684263 9.371422109e-05 -0.02002570947)
(1.162701177 1.563680257e-08 -0.02002561794)
(1.162684261 -9.368293315e-05 -0.02002570946)
)
;

boundaryField
{
    inlet
    {
        type            interstitialInletVelocity;
        inletVelocity   uniform (1.23 0 0);
        value           uniform (1.23 0 0);
    }
    outlet
    {
        type            pressureInletOutletVelocity;
        phi             alphaRhoPhi;
        value           nonuniform List<vector> 9((1.505387936 0.005104029363 -0.06016974724) (1.511411714 0.004984394262 0.00628569315) (1.4335228 0.004715284041 -0.07180054264) (1.548452075 1.019037343e-09 -0.06002379599) (1.555152965 -1.247792776e-08 0.007151906769) (1.477909333 -1.688349777e-08 -0.07179309154) (1.505387912 -0.005103950942 -0.06016977161) (1.511411587 -0.004984329724 0.006285650316) (1.433522721 -0.004715218169 -0.07180055967));
    }
    walls
    {
        type            noSlip;
    }
}


// ************************************************************************* //
