/*--------------------------------*- C++ -*----------------------------------*\
  =========                 |
  \\      /  F ield         | OpenFOAM: The Open Source CFD Toolbox
   \\    /   O peration     | Website:  https://openfoam.org
    \\  /    A nd           | Version:  7
     \\/     M anipulation  |
\*---------------------------------------------------------------------------*/
FoamFile
{
    version     2.0;
    format      ascii;
    class       surfaceScalarField;
    location    "0.09";
    object      alphaRhoPhi;
}
// * * * * * * * * * * * * * * * * * * * * * * * * * * * * * * * * * * * * * //

dimensions      [1 0 -1 0 0 0 0];

internalField   nonuniform List<scalar> 
54
(
2.655953451e-08
3.66738027e-08
2.314792649e-05
-2.655911118e-08
3.614045494e-08
2.322814019e-05
3.667437563e-08
2.314792577e-05
2.614407545e-08
-1.674533009e-08
2.323842366e-05
-2.614285998e-08
-1.632824375e-08
2.331589779e-05
-1.674562436e-08
2.323842365e-05
2.672977531e-08
2.316765727e-05
-2.672896107e-08
2.324826364e-05
2.316765643e-05
3.113442206e-08
2.061631143e-08
2.309616527e-05
-3.113285384e-08
2.041946454e-08
2.326997552e-05
2.061678713e-08
2.309616561e-05
3.106563353e-08
-4.211645255e-08
2.327007882e-05
-3.106379762e-08
-4.198742144e-08
2.344042456e-05
-4.211671879e-08
2.327007731e-05
3.13741609e-08
2.309415699e-05
-3.137225917e-08
2.326900689e-05
2.309415596e-05
4.23052339e-08
9.320455598e-09
-4.23043122e-08
9.667298228e-09
9.319914133e-09
4.260158858e-08
-7.341275891e-08
-4.25999819e-08
-7.334349016e-08
-7.341322971e-08
4.26633193e-08
-4.266320806e-08
)
;

boundaryField
{
    inlet
    {
        type            calculated;
        value           nonuniform List<scalar> 9(-2.321116521e-05 -2.321114983e-05 -2.321113776e-05 -2.321116366e-05 -2.32111483e-05 -2.321113619e-05 -2.321116521e-05 -2.321114983e-05 -2.321113776e-05);
    }
    outlet
    {
        type            calculated;
        value           nonuniform 0();
    }
    walls
    {
        type            calculated;
        value           uniform 0;
    }
    procBoundary0to1
    {
        type            processor;
        value           nonuniform List<scalar> 9(2.3044521e-05 2.334490022e-05 2.304451802e-05 2.331019392e-05 2.360861011e-05 2.331019375e-05 2.297805832e-05 2.328097344e-05 2.297805869e-05);
    }
}


// ************************************************************************* //
