/*--------------------------------*- C++ -*----------------------------------*\
  =========                 |
  \\      /  F ield         | OpenFOAM: The Open Source CFD Toolbox
   \\    /   O peration     | Website:  https://openfoam.org
    \\  /    A nd           | Version:  7
     \\/     M anipulation  |
\*---------------------------------------------------------------------------*/
FoamFile
{
    version     2.0;
    format      ascii;
    class       volScalarField;
    location    "0.09";
    object      cpavg;
}
// * * * * * * * * * * * * * * * * * * * * * * * * * * * * * * * * * * * * * //

dimensions      [0 2 -2 -1 0 0 0];

internalField   nonuniform List<scalar> 
27
(
1011.623317
1011.623317
1011.623317
1011.623318
1011.623318
1011.623318
1011.623319
1011.623319
1011.623319
1011.638507
1011.638507
1011.638507
1011.638509
1011.638508
1011.638509
1011.638511
1011.63851
1011.638511
1011.664255
1011.664255
1011.664255
1011.664259
1011.664258
1011.664259
1011.664263
1011.664263
1011.664263
)
;

boundaryField
{
    inlet
    {
        type            calculated;
        value           uniform 1011.338357;
    }
    outlet
    {
        type            calculated;
        value           nonuniform 0();
    }
    walls
    {
        type            calculated;
        value           nonuniform List<scalar> 
36
(
1011.454022
1011.564132
1011.660177
1011.454243
1011.564207
1011.659701
1011.454022
1011.564132
1011.660177
1011.454022
1011.564038
1011.660091
1011.454242
1011.564112
1011.659609
1011.454022
1011.564038
1011.660091
1011.454022
1011.454242
1011.454022
1011.564132
1011.564158
1011.564038
1011.660177
1011.659651
1011.660091
1011.454022
1011.454242
1011.454022
1011.564132
1011.564158
1011.564038
1011.660177
1011.659651
1011.660091
)
;
    }
    procBoundary0to1
    {
        type            processor;
        value           nonuniform List<scalar> 9(1011.693256 1011.693256 1011.693256 1011.693262 1011.693262 1011.693262 1011.69327 1011.693269 1011.69327);
    }
}


// ************************************************************************* //
