/*--------------------------------*- C++ -*----------------------------------*\
  =========                 |
  \\      /  F ield         | OpenFOAM: The Open Source CFD Toolbox
   \\    /   O peration     | Website:  https://openfoam.org
    \\  /    A nd           | Version:  7
     \\/     M anipulation  |
\*---------------------------------------------------------------------------*/
FoamFile
{
    version     2.0;
    format      ascii;
    class       volScalarField;
    location    "0.09";
    object      muavg;
}
// * * * * * * * * * * * * * * * * * * * * * * * * * * * * * * * * * * * * * //

dimensions      [1 -1 -1 0 0 0 0];

internalField   nonuniform List<scalar> 
27
(
1.861179562e-05
1.861179559e-05
1.861179562e-05
1.861179651e-05
1.861179648e-05
1.861179651e-05
1.861179747e-05
1.861179743e-05
1.861179747e-05
1.862519336e-05
1.862519321e-05
1.862519336e-05
1.862519488e-05
1.862519474e-05
1.862519488e-05
1.862519669e-05
1.862519655e-05
1.862519669e-05
1.864787264e-05
1.864787228e-05
1.864787264e-05
1.864787557e-05
1.864787521e-05
1.864787557e-05
1.864787921e-05
1.864787884e-05
1.864787921e-05
)
;

boundaryField
{
    inlet
    {
        type            calculated;
        value           uniform 1.835366622e-05;
    }
    outlet
    {
        type            calculated;
        value           nonuniform 0();
    }
    walls
    {
        type            calculated;
        value           nonuniform List<scalar> 
36
(
1.846086459e-05
1.85605945e-05
1.864584087e-05
1.846106639e-05
1.856066211e-05
1.864542195e-05
1.846086459e-05
1.85605945e-05
1.864584086e-05
1.846086438e-05
1.856051012e-05
1.864576542e-05
1.846106617e-05
1.856057645e-05
1.864534142e-05
1.846086438e-05
1.856051012e-05
1.864576543e-05
1.846086459e-05
1.846106626e-05
1.846086438e-05
1.85605945e-05
1.856061825e-05
1.856051012e-05
1.864584086e-05
1.864537844e-05
1.864576543e-05
1.846086459e-05
1.846106626e-05
1.846086438e-05
1.85605945e-05
1.856061825e-05
1.856051012e-05
1.864584087e-05
1.864537844e-05
1.864576542e-05
)
;
    }
    procBoundary0to1
    {
        type            processor;
        value           nonuniform List<scalar> 9(1.867337096e-05 1.867337029e-05 1.867337096e-05 1.867337605e-05 1.867337538e-05 1.867337604e-05 1.867338244e-05 1.867338176e-05 1.867338243e-05);
    }
}


// ************************************************************************* //
