/*--------------------------------*- C++ -*----------------------------------*\
  =========                 |
  \\      /  F ield         | OpenFOAM: The Open Source CFD Toolbox
   \\    /   O peration     | Website:  https://openfoam.org
    \\  /    A nd           | Version:  7
     \\/     M anipulation  |
\*---------------------------------------------------------------------------*/
FoamFile
{
    version     2.0;
    format      ascii;
    class       volScalarField;
    location    "0.09";
    object      p;
}
// * * * * * * * * * * * * * * * * * * * * * * * * * * * * * * * * * * * * * //

dimensions      [1 -1 -2 0 0 0 0];

internalField   nonuniform List<scalar> 
27
(
101329.1352
101329.1284
101329.1352
101329.068
101329.0614
101329.068
101329.0154
101329.0085
101329.0154
101327.6053
101327.6008
101327.6053
101327.5385
101327.534
101327.5385
101327.4818
101327.4771
101327.4818
101326.4397
101326.4353
101326.4397
101326.3739
101326.3694
101326.3739
101326.3181
101326.3135
101326.3181
)
;

boundaryField
{
    inlet
    {
        type            zeroGradient;
    }
    outlet
    {
        type            totalPressure;
        rho             rho;
        psi             none;
        gamma           1;
        p0              nonuniform 0();
        value           nonuniform 0();
    }
    walls
    {
        type            zeroGradient;
    }
    procBoundary0to1
    {
        type            processor;
        value           nonuniform List<scalar> 9(101325.8552 101325.8519 101325.8552 101325.7949 101325.7915 101325.7949 101325.7421 101325.7385 101325.7421);
    }
}


// ************************************************************************* //
