/*--------------------------------*- C++ -*----------------------------------*\
  =========                 |
  \\      /  F ield         | OpenFOAM: The Open Source CFD Toolbox
   \\    /   O peration     | Website:  https://openfoam.org
    \\  /    A nd           | Version:  7
     \\/     M anipulation  |
\*---------------------------------------------------------------------------*/
FoamFile
{
    version     2.0;
    format      ascii;
    class       volScalarField;
    location    "0.09";
    object      pDyn;
}
// * * * * * * * * * * * * * * * * * * * * * * * * * * * * * * * * * * * * * //

dimensions      [1 -1 -2 0 0 0 0];

internalField   nonuniform List<scalar> 
27
(
1.718616638
1.732765504
1.718616598
1.733531014
1.7480706
1.733530986
1.720166827
1.734356667
1.72016677
1.891849195
1.91688561
1.891849088
1.917992989
1.943220015
1.917992965
1.894115206
1.91927678
1.89411503
1.833549519
1.872038354
1.833549495
1.870246423
1.909054652
1.870246236
1.830524923
1.869224081
1.83052487
)
;

boundaryField
{
    inlet
    {
        type            calculated;
        value           nonuniform List<scalar> 9(2.21781307 2.22272433 2.217810447 2.222725655 2.228226167 2.222723023 2.21781307 2.22272433 2.217810447);
    }
    outlet
    {
        type            calculated;
        value           nonuniform 0();
    }
    walls
    {
        type            calculated;
        value           uniform 0;
    }
    procBoundary0to1
    {
        type            processor;
        value           nonuniform List<scalar> 9(1.585111978 1.636453015 1.585111698 1.627132051 1.679190218 1.627131911 1.569196237 1.620769906 1.569196206);
    }
}


// ************************************************************************* //
