/*--------------------------------*- C++ -*----------------------------------*\
  =========                 |
  \\      /  F ield         | OpenFOAM: The Open Source CFD Toolbox
   \\    /   O peration     | Website:  https://openfoam.org
    \\  /    A nd           | Version:  7
     \\/     M anipulation  |
\*---------------------------------------------------------------------------*/
FoamFile
{
    version     2.0;
    format      ascii;
    class       surfaceScalarField;
    location    "0.09";
    object      phi;
}
// * * * * * * * * * * * * * * * * * * * * * * * * * * * * * * * * * * * * * //

dimensions      [0 3 -1 0 0 0 0];

internalField   nonuniform List<scalar> 
54
(
3.576491254e-08
4.938474096e-08
3.061478162e-05
-3.576434248e-08
4.872422586e-08
3.07550375e-05
4.938551246e-08
3.061478066e-05
3.52472102e-08
-2.254918256e-08
3.076862968e-05
-3.524557151e-08
-2.201359952e-08
3.091029424e-05
-2.254957882e-08
3.076862966e-05
3.599419989e-08
3.064083295e-05
-3.599310344e-08
3.078163636e-05
3.064083184e-05
4.050505235e-08
2.682124253e-08
2.902948527e-05
-4.050301215e-08
2.659682915e-08
2.927377518e-05
2.682186139e-08
2.90294857e-05
4.046366968e-08
-5.479221145e-08
2.927384312e-05
-4.046127836e-08
-5.468948326e-08
2.95180943e-05
-5.479255782e-08
2.927384123e-05
4.081677889e-08
2.902685125e-05
-4.081430481e-08
2.927244014e-05
2.902684996e-05
5.148429157e-08
1.134272296e-08
-5.148316988e-08
1.177331784e-08
1.134206401e-08
5.188228423e-08
-8.934103246e-08
-5.188032755e-08
-8.932118894e-08
-8.934160544e-08
5.191988131e-08
-5.191974595e-08
)
;

boundaryField
{
    inlet
    {
        type            calculated;
        value           nonuniform List<scalar> 9(-3.102855299e-05 -3.106290004e-05 -3.102855299e-05 -3.106290004e-05 -3.11013218e-05 -3.106290004e-05 -3.102855299e-05 -3.106290004e-05 -3.102855299e-05);
    }
    outlet
    {
        type            calculated;
        value           nonuniform 0();
    }
    walls
    {
        type            calculated;
        value           uniform 0;
    }
    procBoundary0to1
    {
        type            processor;
        value           nonuniform List<scalar> 9(2.70012983e-05 2.736578006e-05 2.700129478e-05 2.732512648e-05 2.768938132e-05 2.732512627e-05 2.692349632e-05 2.729089728e-05 2.692349674e-05);
    }
}


// ************************************************************************* //
