/*--------------------------------*- C++ -*----------------------------------*\
  =========                 |
  \\      /  F ield         | OpenFOAM: The Open Source CFD Toolbox
   \\    /   O peration     | Website:  https://openfoam.org
    \\  /    A nd           | Version:  7
     \\/     M anipulation  |
\*---------------------------------------------------------------------------*/
FoamFile
{
    version     2.0;
    format      ascii;
    class       surfaceScalarField;
    location    "0.09";
    object      rhoPhi;
}
// * * * * * * * * * * * * * * * * * * * * * * * * * * * * * * * * * * * * * //

dimensions      [1 0 -1 0 0 0 0];

internalField   nonuniform List<scalar> 
54
(
4.189836344e-08
5.785388722e-08
3.575323901e-05
-4.189769562e-08
5.707932926e-08
3.591672984e-05
5.785479103e-08
3.57532379e-05
4.129129789e-08
-2.641619813e-08
3.593263075e-05
-4.12893782e-08
-2.578841917e-08
3.609766159e-05
-2.641666235e-08
3.593263073e-05
4.216692277e-08
3.578371428e-05
-4.216563828e-08
3.59478459e-05
3.578371298e-05
4.715522292e-08
3.122482119e-08
3.37057297e-05
-4.715284775e-08
3.096336569e-08
3.398974071e-05
3.122554165e-08
3.370573019e-05
4.710684601e-08
-6.37882632e-08
3.39898916e-05
-4.71040621e-08
-6.366826526e-08
3.427368381e-05
-6.378866642e-08
3.398988939e-05
4.751832388e-08
3.370279889e-05
-4.751544358e-08
3.398832586e-05
3.370279738e-05
5.961898524e-08
1.313492572e-08
-5.961768632e-08
1.363386906e-08
1.313416265e-08
6.008136572e-08
-1.034575107e-07
-6.007909982e-08
-1.034369187e-07
-1.034581742e-07
6.012361992e-08
-6.012346315e-08
)
;

boundaryField
{
    inlet
    {
        type            calculated;
        value           nonuniform List<scalar> 9(-3.659597916e-05 -3.663646478e-05 -3.659593587e-05 -3.663648662e-05 -3.668177807e-05 -3.663644325e-05 -3.659597916e-05 -3.663646478e-05 -3.659593587e-05);
    }
    outlet
    {
        type            calculated;
        value           nonuniform 0();
    }
    walls
    {
        type            calculated;
        value           uniform 0;
    }
    procBoundary0to1
    {
        type            processor;
        value           nonuniform List<scalar> 9(3.120067332e-05 3.16234377e-05 3.120066928e-05 3.15764239e-05 3.199873846e-05 3.157642367e-05 3.111068749e-05 3.153684129e-05 3.1110688e-05);
    }
}


// ************************************************************************* //
