/*--------------------------------*- C++ -*----------------------------------*\
  =========                 |
  \\      /  F ield         | OpenFOAM: The Open Source CFD Toolbox
   \\    /   O peration     | Website:  https://openfoam.org
    \\  /    A nd           | Version:  7
     \\/     M anipulation  |
\*---------------------------------------------------------------------------*/
FoamFile
{
    version     2.0;
    format      ascii;
    class       volScalarField::Internal;
    location    "0.09";
    object      steelCloud:hsCoeff;
}
// * * * * * * * * * * * * * * * * * * * * * * * * * * * * * * * * * * * * * //

dimensions      [1 2 -2 -1 0 0 0];

value           nonuniform List<scalar> 
27
(
6.813171483e-06
6.826235638e-06
6.813171483e-06
6.826235638e-06
6.840815447e-06
6.826235638e-06
6.813171483e-06
6.826235638e-06
6.813171483e-06
6.322085504e-06
6.335613629e-06
6.322085504e-06
6.335613629e-06
6.351227823e-06
6.335613629e-06
6.322085504e-06
6.335613629e-06
6.322085504e-06
5.405110109e-06
5.414383746e-06
5.405110109e-06
5.414383746e-06
5.424796639e-06
5.414383746e-06
5.405110109e-06
5.414383746e-06
5.405110109e-06
)
;


// ************************************************************************* //
