/*--------------------------------*- C++ -*----------------------------------*\
  =========                 |
  \\      /  F ield         | OpenFOAM: The Open Source CFD Toolbox
   \\    /   O peration     | Website:  https://openfoam.org
    \\  /    A nd           | Version:  7
     \\/     M anipulation  |
\*---------------------------------------------------------------------------*/
FoamFile
{
    version     2.0;
    format      ascii;
    class       volScalarField::Internal;
    location    "0.09";
    object      steelCloud:UCoeff;
}
// * * * * * * * * * * * * * * * * * * * * * * * * * * * * * * * * * * * * * //

dimensions      [1 0 0 0 0 0 0];

value           nonuniform List<scalar> 
27
(
3.49086997e-08
3.497563661e-08
3.49086997e-08
3.497563661e-08
3.505033929e-08
3.497563661e-08
3.49086997e-08
3.497563661e-08
3.49086997e-08
3.239251865e-08
3.246183281e-08
3.239251865e-08
3.246183281e-08
3.254183538e-08
3.246183281e-08
3.239251865e-08
3.246183281e-08
3.239251865e-08
2.769420469e-08
2.77417201e-08
2.769420469e-08
2.77417201e-08
2.779507272e-08
2.77417201e-08
2.769420469e-08
2.77417201e-08
2.769420469e-08
)
;


// ************************************************************************* //
