/*--------------------------------*- C++ -*----------------------------------*\
  =========                 |
  \\      /  F ield         | OpenFOAM: The Open Source CFD Toolbox
   \\    /   O peration     | Website:  https://openfoam.org
    \\  /    A nd           | Version:  7
     \\/     M anipulation  |
\*---------------------------------------------------------------------------*/
FoamFile
{
    version     2.0;
    format      ascii;
    class       volScalarField;
    location    "0.09";
    object      Tavg;
}
// * * * * * * * * * * * * * * * * * * * * * * * * * * * * * * * * * * * * * //

dimensions      [0 0 0 1 0 0 0];

internalField   nonuniform List<scalar> 
27
(
302.8692638
302.8692631
302.8692638
302.8692807
302.86928
302.8692807
302.8692989
302.8692983
302.8692989
303.1227801
303.1227773
303.12278
303.1228091
303.1228064
303.1228091
303.1228435
303.1228407
303.1228435
303.5519945
303.5519875
303.5519944
303.5520501
303.5520432
303.5520501
303.5521193
303.5521124
303.5521193
)
;

boundaryField
{
    inlet
    {
        type            fixedValue;
        value           uniform 298;
    }
    outlet
    {
        type            zeroGradient;
    }
    walls
    {
        type            zeroGradient;
    }
    procBoundary0to1
    {
        type            processor;
        value           nonuniform List<scalar> 9(304.0346622 304.0346495 304.0346622 304.0347589 304.0347462 304.0347588 304.0348803 304.0348675 304.0348803);
    }
}


// ************************************************************************* //
