/*--------------------------------*- C++ -*----------------------------------*\
  =========                 |
  \\      /  F ield         | OpenFOAM: The Open Source CFD Toolbox
   \\    /   O peration     | Website:  https://openfoam.org
    \\  /    A nd           | Version:  7
     \\/     M anipulation  |
\*---------------------------------------------------------------------------*/
FoamFile
{
    version     2.0;
    format      ascii;
    class       volVectorField;
    location    "0.09";
    object      Uavg;
}
// * * * * * * * * * * * * * * * * * * * * * * * * * * * * * * * * * * * * * //

dimensions      [0 1 -1 0 0 0 0];

internalField   nonuniform List<vector> 
27
(
(1.247436642 5.110511405e-05 -0.01021397339)
(1.247440796 2.206960287e-08 -0.01021397803)
(1.247436642 -5.106101089e-05 -0.01021397323)
(1.247403556 5.107131987e-05 -0.01026047181)
(1.247407713 2.218835406e-08 -0.01026047362)
(1.247403555 -5.102698056e-05 -0.01026047171)
(1.247362156 5.104096835e-05 -0.01032384056)
(1.247366314 2.229155785e-08 -0.01032384193)
(1.247362155 -5.099642306e-05 -0.01032384052)
(1.219719291 5.367983368e-05 -0.01124713692)
(1.219723771 2.186231391e-08 -0.01124713639)
(1.21971929 -5.363613871e-05 -0.01124713677)
(1.219657283 5.362894951e-05 -0.01129609811)
(1.219661768 2.19863069e-08 -0.01129609545)
(1.219657282 -5.358500776e-05 -0.01129609802)
(1.219586353 5.357974065e-05 -0.01136332046)
(1.219590841 2.209453122e-08 -0.01136331844)
(1.219586352 -5.353558272e-05 -0.01136332043)
(1.182770045 5.996869013e-05 -0.01320704081)
(1.18277568 2.161526923e-08 -0.01320702587)
(1.182770044 -5.992546914e-05 -0.01320704065)
(1.182646092 5.987616471e-05 -0.01326169621)
(1.182651736 2.175717954e-08 -0.01326168041)
(1.182646091 -5.983266121e-05 -0.01326169612)
(1.182511057 5.978177992e-05 -0.01333837176)
(1.18251671 2.188322852e-08 -0.01333835889)
(1.182511056 -5.973802452e-05 -0.01333837173)
)
;

boundaryField
{
    inlet
    {
        type            interstitialInletVelocity;
        inletVelocity   uniform (1.23 0 0);
        value           uniform (1.23 0 0);
    }
    outlet
    {
        type            pressureInletOutletVelocity;
        phi             alphaRhoPhi;
        value           nonuniform 0();
    }
    walls
    {
        type            noSlip;
    }
    procBoundary0to1
    {
        type            processor;
        value           nonuniform List<vector> 9((1.159984288 7.173191963e-05 -0.01577026845) (1.15999339 2.162817449e-08 -0.01577022521) (1.159984287 -7.168864216e-05 -0.01577026829) (1.159767416 7.15645581e-05 -0.01583294858) (1.15977654 2.180160106e-08 -0.01583290465) (1.159767415 -7.152093534e-05 -0.01583294847) (1.159532842 7.138917969e-05 -0.01592931045) (1.15954199 2.196339457e-08 -0.01592927549) (1.159532841 -7.134523455e-05 -0.0159293104));
    }
}


// ************************************************************************* //
