/*--------------------------------*- C++ -*----------------------------------*\
  =========                 |
  \\      /  F ield         | OpenFOAM: The Open Source CFD Toolbox
   \\    /   O peration     | Website:  https://openfoam.org
    \\  /    A nd           | Version:  7
     \\/     M anipulation  |
\*---------------------------------------------------------------------------*/
FoamFile
{
    version     2.0;
    format      ascii;
    class       volScalarField;
    location    "0.055";
    object      muavg;
}
// * * * * * * * * * * * * * * * * * * * * * * * * * * * * * * * * * * * * * //

dimensions      [1 -1 -1 0 0 0 0];

internalField   nonuniform List<scalar> 
27
(
1.867178966e-05
1.867178895e-05
1.867178966e-05
1.867179577e-05
1.867179507e-05
1.867179578e-05
1.867180326e-05
1.867180255e-05
1.867180326e-05
1.8693319e-05
1.869331795e-05
1.869331902e-05
1.869332802e-05
1.869332696e-05
1.869332803e-05
1.869333909e-05
1.869333803e-05
1.86933391e-05
1.87056004e-05
1.87055991e-05
1.870560042e-05
1.870561148e-05
1.870561017e-05
1.870561149e-05
1.870562509e-05
1.870562376e-05
1.87056251e-05
)
;

boundaryField
{
    inlet
    {
        type            calculated;
        value           nonuniform 0();
    }
    outlet
    {
        type            calculated;
        value           nonuniform List<scalar> 9(1.881382241e-05 1.88113983e-05 1.881603504e-05 1.881017569e-05 1.880791262e-05 1.881222402e-05 1.881382465e-05 1.881139852e-05 1.881603665e-05);
    }
    walls
    {
        type            calculated;
        value           nonuniform List<scalar> 
36
(
1.871112517e-05
1.876509939e-05
1.881382241e-05
1.870993478e-05
1.876285056e-05
1.881017569e-05
1.871112525e-05
1.876510033e-05
1.881382465e-05
1.871126583e-05
1.876583408e-05
1.881603504e-05
1.871005848e-05
1.876353061e-05
1.881222402e-05
1.871126591e-05
1.876583474e-05
1.881603665e-05
1.871112525e-05
1.871000198e-05
1.871126591e-05
1.876510033e-05
1.8763245e-05
1.876583474e-05
1.881382465e-05
1.881139852e-05
1.881603665e-05
1.871112517e-05
1.871000198e-05
1.871126583e-05
1.876509939e-05
1.87632449e-05
1.876583408e-05
1.881382241e-05
1.88113983e-05
1.881603504e-05
)
;
    }
    procBoundary1to0
    {
        type            processor;
        value           nonuniform List<scalar> 9(1.864640771e-05 1.864640734e-05 1.864640771e-05 1.864641127e-05 1.86464109e-05 1.864641127e-05 1.864641557e-05 1.864641519e-05 1.864641557e-05);
    }
}


// ************************************************************************* //
