/*--------------------------------*- C++ -*----------------------------------*\
  =========                 |
  \\      /  F ield         | OpenFOAM: The Open Source CFD Toolbox
   \\    /   O peration     | Website:  https://openfoam.org
    \\  /    A nd           | Version:  7
     \\/     M anipulation  |
\*---------------------------------------------------------------------------*/
FoamFile
{
    version     2.0;
    format      ascii;
    class       volScalarField;
    location    "0.055";
    object      pDyn;
}
// * * * * * * * * * * * * * * * * * * * * * * * * * * * * * * * * * * * * * //

dimensions      [1 -1 -2 0 0 0 0];

internalField   nonuniform List<scalar> 
27
(
1.585575922
1.636750916
1.585573365
1.627431375
1.679312801
1.627432445
1.569608886
1.621009026
1.569607682
1.38361883
1.446086244
1.383610837
1.422330796
1.486020564
1.422331692
1.342633536
1.405123972
1.342628183
1.301011812
1.376308526
1.300997206
1.309239259
1.386029412
1.309240397
1.180497356
1.2544284
1.180487095
)
;

boundaryField
{
    inlet
    {
        type            calculated;
        value           nonuniform 0();
    }
    outlet
    {
        type            calculated;
        value           nonuniform List<scalar> 9(1.301009312 1.309237137 1.180495842 1.376305864 1.386027151 1.254426782 1.300994706 1.309238275 1.180485582);
    }
    walls
    {
        type            calculated;
        value           uniform 0;
    }
    procBoundary1to0
    {
        type            processor;
        value           nonuniform List<scalar> 9(1.833769259 1.872158821 1.833770388 1.870378995 1.909079155 1.870379917 1.830742599 1.869337922 1.830743796);
    }
}


// ************************************************************************* //
