/*--------------------------------*- C++ -*----------------------------------*\
  =========                 |
  \\      /  F ield         | OpenFOAM: The Open Source CFD Toolbox
   \\    /   O peration     | Website:  https://openfoam.org
    \\  /    A nd           | Version:  7
     \\/     M anipulation  |
\*---------------------------------------------------------------------------*/
FoamFile
{
    version     2.0;
    format      ascii;
    class       surfaceScalarField;
    location    "0.055";
    object      phi;
}
// * * * * * * * * * * * * * * * * * * * * * * * * * * * * * * * * * * * * * //

dimensions      [0 3 -1 0 0 0 0];

internalField   nonuniform List<scalar> 
54
(
5.580498997e-08
-3.501230055e-08
2.527065473e-05
-5.581852935e-08
-3.378543042e-08
2.576412087e-05
-3.500832432e-08
2.527063801e-05
5.624159246e-08
-1.391542602e-07
2.563179531e-05
-5.624384981e-08
-1.384995065e-07
2.612683936e-05
-1.391564384e-07
2.563180226e-05
5.639895474e-08
2.502867776e-05
-5.640878289e-08
2.552841653e-05
2.50286663e-05
5.01863195e-08
-1.406602635e-07
2.428411917e-05
-5.021369915e-08
-1.377759924e-07
2.489713941e-05
-1.406545419e-07
2.428407008e-05
5.057083472e-08
-2.330490111e-07
2.457784232e-05
-5.057598906e-08
-2.308281599e-07
2.519651647e-05
-2.330521407e-07
2.457785094e-05
5.065265519e-08
2.368519826e-05
-5.067333605e-08
2.431063619e-05
2.368516529e-05
3.391467199e-08
-3.81022071e-07
-3.39407196e-08
-3.7428075e-07
-3.810205387e-07
3.36568698e-08
-4.511640128e-07
-3.366292804e-08
-4.449136082e-07
-4.511675872e-07
3.308452284e-08
-3.310583921e-08
)
;

boundaryField
{
    inlet
    {
        type            calculated;
        value           nonuniform 0();
    }
    outlet
    {
        type            calculated;
        value           nonuniform List<scalar> 9(2.427426798e-05 2.425190217e-05 2.285348281e-05 2.497172463e-05 2.496125346e-05 2.357368734e-05 2.427419218e-05 2.425190956e-05 2.285342429e-05);
    }
    walls
    {
        type            calculated;
        value           uniform 0;
    }
    procBoundary1to0
    {
        type            processor;
        value           nonuniform List<scalar> 9(-2.70017478e-05 -2.736550867e-05 -2.700174704e-05 -2.73249307e-05 -2.768842913e-05 -2.732493729e-05 -2.692392379e-05 -2.729056883e-05 -2.692392778e-05);
    }
}


// ************************************************************************* //
