/*--------------------------------*- C++ -*----------------------------------*\
  =========                 |
  \\      /  F ield         | OpenFOAM: The Open Source CFD Toolbox
   \\    /   O peration     | Website:  https://openfoam.org
    \\  /    A nd           | Version:  7
     \\/     M anipulation  |
\*---------------------------------------------------------------------------*/
FoamFile
{
    version     2.0;
    format      ascii;
    class       volScalarField::Internal;
    location    "0.055";
    object      steelCloud:hsCoeff;
}
// * * * * * * * * * * * * * * * * * * * * * * * * * * * * * * * * * * * * * //

dimensions      [1 2 -2 -1 0 0 0];

value           nonuniform List<scalar> 
27
(
4.334096658e-06
4.338808042e-06
4.334096658e-06
4.338808042e-06
4.343930321e-06
4.338808042e-06
4.334096658e-06
4.338808042e-06
4.334096658e-06
3.431097473e-06
3.43310449e-06
3.431097473e-06
3.43310449e-06
3.435229373e-06
3.43310449e-06
3.431097473e-06
3.43310449e-06
3.431097473e-06
2.926021616e-06
2.926942445e-06
2.926021617e-06
2.926942445e-06
2.927897768e-06
2.926942445e-06
2.926021617e-06
2.926942445e-06
2.926021617e-06
)
;


// ************************************************************************* //
