/*--------------------------------*- C++ -*----------------------------------*\
  =========                 |
  \\      /  F ield         | OpenFOAM: The Open Source CFD Toolbox
   \\    /   O peration     | Website:  https://openfoam.org
    \\  /    A nd           | Version:  7
     \\/     M anipulation  |
\*---------------------------------------------------------------------------*/
FoamFile
{
    version     2.0;
    format      ascii;
    class       volScalarField::Internal;
    location    "0.055";
    object      steelCloud:hsTrans;
}
// * * * * * * * * * * * * * * * * * * * * * * * * * * * * * * * * * * * * * //

dimensions      [1 2 -2 0 0 0 0];

value           nonuniform List<scalar> 
27
(
0.0001512638198
0.0001514282512
0.0001512638198
0.0001514282512
0.0001516070233
0.0001514282512
0.0001512638198
0.0001514282512
0.0001512638198
0.0001197483468
0.0001198183935
0.0001197483468
0.0001198183935
0.0001198925538
0.0001198183935
0.0001197483468
0.0001198183935
0.0001197483468
0.0001021207512
0.0001021528889
0.0001021207512
0.0001021528889
0.0001021862305
0.0001021528889
0.0001021207512
0.0001021528889
0.0001021207512
)
;


// ************************************************************************* //
