/*--------------------------------*- C++ -*----------------------------------*\
  =========                 |
  \\      /  F ield         | OpenFOAM: The Open Source CFD Toolbox
   \\    /   O peration     | Website:  https://openfoam.org
    \\  /    A nd           | Version:  7
     \\/     M anipulation  |
\*---------------------------------------------------------------------------*/
FoamFile
{
    version     2.0;
    format      ascii;
    class       volVectorField::Internal;
    location    "0.055";
    object      steelCloud:UTrans;
}
// * * * * * * * * * * * * * * * * * * * * * * * * * * * * * * * * * * * * * //

dimensions      [1 1 -1 0 0 0 0];

value           nonuniform List<vector> 
27
(
(-4.054568697e-08 2.666000679e-15 -1.857466699e-10)
(-4.05897622e-08 2.668898757e-15 -1.85948586e-10)
(-4.054568697e-08 2.666000679e-15 -1.857466699e-10)
(-4.05897622e-08 2.668898757e-15 -1.85948586e-10)
(-4.063768137e-08 2.672049587e-15 -1.861681118e-10)
(-4.05897622e-08 2.668898757e-15 -1.85948586e-10)
(-4.054568697e-08 2.666000679e-15 -1.857466699e-10)
(-4.05897622e-08 2.668898757e-15 -1.85948586e-10)
(-4.054568697e-08 2.666000679e-15 -1.857466699e-10)
(-3.209808527e-08 2.110545499e-15 -1.470467735e-10)
(-3.211686101e-08 2.11178006e-15 -1.471327884e-10)
(-3.209808528e-08 2.110545499e-15 -1.470467735e-10)
(-3.211686101e-08 2.11178006e-15 -1.471327884e-10)
(-3.21367394e-08 2.113087124e-15 -1.472238546e-10)
(-3.211686101e-08 2.11178006e-15 -1.471327884e-10)
(-3.209808528e-08 2.110545499e-15 -1.470467735e-10)
(-3.211686101e-08 2.11178006e-15 -1.471327884e-10)
(-3.209808528e-08 2.110545499e-15 -1.470467735e-10)
(-2.737307584e-08 1.799861939e-15 -1.254007038e-10)
(-2.738169024e-08 1.800428362e-15 -1.254401678e-10)
(-2.737307584e-08 1.799861939e-15 -1.254007038e-10)
(-2.738169024e-08 1.800428362e-15 -1.254401678e-10)
(-2.739062734e-08 1.801016002e-15 -1.254811102e-10)
(-2.738169024e-08 1.800428362e-15 -1.254401678e-10)
(-2.737307584e-08 1.799861939e-15 -1.254007038e-10)
(-2.738169024e-08 1.800428362e-15 -1.254401678e-10)
(-2.737307584e-08 1.799861939e-15 -1.254007038e-10)
)
;


// ************************************************************************* //
