/*--------------------------------*- C++ -*----------------------------------*\
  =========                 |
  \\      /  F ield         | OpenFOAM: The Open Source CFD Toolbox
   \\    /   O peration     | Website:  https://openfoam.org
    \\  /    A nd           | Version:  7
     \\/     M anipulation  |
\*---------------------------------------------------------------------------*/
FoamFile
{
    version     2.0;
    format      ascii;
    class       volScalarField::Internal;
    location    "0.055";
    object      steelCloud:UCoeff;
}
// * * * * * * * * * * * * * * * * * * * * * * * * * * * * * * * * * * * * * //

dimensions      [1 0 0 0 0 0 0];

value           nonuniform List<scalar> 
27
(
2.222303864e-08
2.224719622e-08
2.222303864e-08
2.224719622e-08
2.227346065e-08
2.224719622e-08
2.222303864e-08
2.224719622e-08
2.222303864e-08
1.759291906e-08
1.760321002e-08
1.759291906e-08
1.760321002e-08
1.761410534e-08
1.760321002e-08
1.759291906e-08
1.760321002e-08
1.759291907e-08
1.50031475e-08
1.500786904e-08
1.50031475e-08
1.500786904e-08
1.501276745e-08
1.500786904e-08
1.50031475e-08
1.500786904e-08
1.50031475e-08
)
;


// ************************************************************************* //
