/*--------------------------------*- C++ -*----------------------------------*\
  =========                 |
  \\      /  F ield         | OpenFOAM: The Open Source CFD Toolbox
   \\    /   O peration     | Website:  https://openfoam.org
    \\  /    A nd           | Version:  7
     \\/     M anipulation  |
\*---------------------------------------------------------------------------*/
FoamFile
{
    version     2.0;
    format      ascii;
    class       volScalarField;
    location    "0.055";
    object      T;
}
// * * * * * * * * * * * * * * * * * * * * * * * * * * * * * * * * * * * * * //

dimensions      [0 0 0 1 0 0 0];

internalField   nonuniform List<scalar> 
27
(
304.7791325
304.7566681
304.7791319
304.7578563
304.7377896
304.7578555
304.7816106
304.7588268
304.78161
305.793673
305.7523884
305.7936801
305.7594447
305.7209558
305.7594447
305.8067439
305.7644767
305.8067489
306.674631
306.6102596
306.6746529
306.6314553
306.5700074
306.6314569
306.7127962
306.6456123
306.7128122
)
;

boundaryField
{
    inlet
    {
        type            fixedValue;
        value           nonuniform 0();
    }
    outlet
    {
        type            zeroGradient;
    }
    walls
    {
        type            zeroGradient;
    }
    procBoundary1to0
    {
        type            processor;
        value           nonuniform List<scalar> 9(303.4994341 303.4917172 303.4994319 303.4909066 303.4851132 303.4909057 303.4980411 303.4902321 303.4980394);
    }
}


// ************************************************************************* //
