/*--------------------------------*- C++ -*----------------------------------*\
  =========                 |
  \\      /  F ield         | OpenFOAM: The Open Source CFD Toolbox
   \\    /   O peration     | Website:  https://openfoam.org
    \\  /    A nd           | Version:  7
     \\/     M anipulation  |
\*---------------------------------------------------------------------------*/
FoamFile
{
    version     2.0;
    format      ascii;
    class       volVectorField;
    location    "0.055";
    object      U;
}
// * * * * * * * * * * * * * * * * * * * * * * * * * * * * * * * * * * * * * //

dimensions      [0 1 -1 0 0 0 0];

internalField   nonuniform List<vector> 
27
(
(1.65787916 0.005051464405 -0.03187430534)
(1.684410842 -1.404576374e-06 -0.03190124073)
(1.657878835 -0.005050119108 -0.03187398069)
(1.67982355 0.00503490112 0.0169442135)
(1.70637585 -9.893217523e-07 0.01719983369)
(1.679823978 -0.005033136986 0.01694427064)
(1.649289258 0.004921960567 -0.04271462555)
(1.676071502 -1.277751224e-06 -0.04284472695)
(1.649289263 -0.004920491973 -0.04271492898)
(1.550875829 0.005415800835 -0.04370220346)
(1.58547756 -2.489100597e-06 -0.04367271545)
(1.550873925 -0.005414202138 -0.04370151624)
(1.572931775 0.005360583184 0.01633289393)
(1.607716816 -1.554601859e-06 0.01680081118)
(1.572932281 -0.005358048527 0.01633310243)
(1.527426594 0.005166128928 -0.05519761074)
(1.562559762 -2.183875777e-06 -0.05531701593)
(1.527425351 -0.005164221571 -0.0551982982)
(1.505570457 0.005070440632 -0.06000844648)
(1.548497691 -2.972643959e-06 -0.05987691413)
(1.505565954 -0.00506793598 -0.06000802937)
(1.511458785 0.004955751068 0.006078114298)
(1.555057605 -2.083597915e-06 0.006935992509)
(1.511459287 -0.004952345174 0.006078196498)
(1.433643523 0.00469006827 -0.07158469346)
(1.477873827 -2.763438507e-06 -0.07159694583)
(1.43364011 -0.004687322067 -0.07158554914)
)
;

boundaryField
{
    inlet
    {
        type            interstitialInletVelocity;
        inletVelocity   nonuniform 0();
        value           nonuniform 0();
    }
    outlet
    {
        type            pressureInletOutletVelocity;
        phi             alphaRhoPhi;
        value           nonuniform List<vector> 9((1.505570457 0.005070440632 -0.06000844648) (1.511458785 0.004955751068 0.006078114298) (1.433643523 0.00469006827 -0.07158469346) (1.548497691 -2.972643959e-06 -0.05987691413) (1.555057605 -2.083597915e-06 0.006935992509) (1.477873827 -2.763438507e-06 -0.07159694583) (1.505565954 -0.00506793598 -0.06000802937) (1.511459287 -0.004952345174 0.006078196498) (1.43364011 -0.004687322067 -0.07158554914));
    }
    walls
    {
        type            noSlip;
    }
    procBoundary1to0
    {
        type            processor;
        value           nonuniform List<vector> 9((1.779431775 0.004172759377 -0.02277856562) (1.797965633 -5.355433101e-07 -0.02282468821) (1.779432212 -0.004171702943 -0.02277841368) (1.797198029 0.00416254962 0.01330931856) (1.815704253 -3.727473039e-07 0.01344290573) (1.797198279 -0.004161324151 0.01330926038) (1.777825452 0.004104392128 -0.03170892447) (1.796474034 -5.507383712e-07 -0.03180711203) (1.777825847 -0.004103354746 -0.03170909657));
    }
}


// ************************************************************************* //
